 POSCAR to lmp

72 atoms
72 atom types

0.000000   9.514298 xlo xhi
0.000000   8.239624 ylo yhi
0.000000  14.987014 zlo zhi

 -4.757149   0.000000   0.000000  xy xz yz

Atoms

 1 1    0.001334   5.496447   9.528710
 2 2    4.766790   2.755037   5.466105
 3 3    0.005667   5.494181  13.398105
 4 4    4.760495   2.753914   1.598218
 5 5    1.797721   1.948720  10.130647
 6 6    6.942406   0.582861  10.131329
 7 7    5.543511   5.721421  10.133683
 8 8    0.786603   2.530511   4.867519
 9 9   -2.960918   6.301591   4.871480
 10 10    2.183920   7.660549   4.863339
 11 11    3.959780   0.712432  12.879771
 12 12    6.929521   3.081606  12.871818
 13 13    3.390868   4.469526  12.878932
 14 14   -1.361806   3.782820   2.124455
 15 15   -0.797942   7.545932   2.125546
 16 16    2.173460   5.173449   2.120007
 17 17    0.003222   0.007033   0.004275
 18 18    0.001332   0.000064   7.499511
 19 19    6.562731   0.007184   0.009537
 20 20   -3.272195   5.682486   0.006179
 21 21    1.483349   2.565339   0.004085
 22 22    5.879705   0.004223   7.494721
 23 23   -2.934434   5.088437   7.499453
 24 24    1.827026   3.161821   7.503260
 25 25    0.743285   1.286186   0.004180
 26 26    2.437108   3.517433  -1.051999
 27 27    1.828404   3.869394   1.062046
 28 28    0.744508   4.029760  -0.792412
 29 29    3.121922   2.659626   0.801151
 30 30    2.721564   1.638885  -1.051579
 31 31    6.410387  -0.287426   6.179030
 32 32    6.411056   0.293542   8.813025
 33 33    5.323248   1.379630   6.480413
 34 34    5.319094  -1.369477   8.511715
 35 35    7.697667   0.002143   7.497116
 36 36    6.231940  -2.536790   7.498991
 37 37    1.698267   4.981854  13.138518
 38 38    4.467190   5.095473  11.506307
 39 39    5.673327   3.921737   6.482779
 40 40    3.296908   2.958429   6.484683
 41 41   -1.474173   0.007109   0.006906
 42 42    0.744088  -1.275052   0.005227
 43 43    1.981501   0.359732  -1.051484
 44 44   -1.290234  -1.529571   1.062141
 45 45   -0.679292   1.894926   1.064365
 46 46    0.503820   7.896370   1.067542
 47 47   -0.397298   9.269734   1.861882
 48 48   -1.879430   6.923761   3.498513
 49 49    1.306815   2.846166   6.185389
 50 50   -0.287601   3.156665   3.495987
 51 51    0.393968   1.265287   6.183515
 52 52   -2.928486   4.382046  -1.054508
 53 53   -2.317000   4.732653   1.065317
 54 54   -4.012999   4.218200   0.802198
 55 55   -1.633264   5.588334  -0.791365
 56 56   -5.306516   5.427968   1.063093
 57 57    3.471201   7.950118   6.181425
 58 58    4.368650   6.981070   4.867409
 59 59   -2.947676   5.695014   6.185467
 60 60   -3.452610   5.404929   8.816568
 61 61   -1.466550   5.292442   8.514082
 62 62   -3.845125   6.664062   7.499482
 63 63   -5.310853   4.125129   7.501357
 64 64    1.812374   2.555270   8.816954
 65 65    0.914180   4.329134   8.515985
 66 66    5.261255   0.359808  -1.048853
 67 67    6.746126   1.544395  -1.052829
 68 68    6.752568   0.295023  -2.423074
 69 69    8.431695  -1.255509  -2.421897
 70 70   -1.285280   0.291463   8.815420
 71 71    0.899527   0.974392   8.815079
 72 72   -0.393528   2.515163  11.501232
