 POSCAR to lmp

72 atoms
3 atom types

0.000000   9.331176 xlo xhi
0.000000   8.380597 ylo yhi
0.000000  14.823977 zlo zhi

 -4.432454   0.879851  -0.281470  xy xz yz

Atoms

 1 1    0.129532   6.088954   8.276143
 2 1    5.416822   2.796312   7.118228
 3 1    1.073927   4.578849  13.489312
 4 1    5.493982   1.773858   1.761266
 5 1    1.006347   2.910191  10.207734
 6 1    6.760903   0.141098   9.945316
 7 1    4.912668   6.241909  11.138699
 8 1    0.967653   3.107089   5.300707
 9 1   -1.525346   6.353173   4.449727
 10 1    4.561664   7.617974   4.384883
 11 1   -0.895085   7.977373  13.599042
 12 1    7.696585   2.585567  12.504522
 13 1    3.850550   3.153338  12.247324
 14 1   -0.404063   2.340603   2.154984
 15 1    0.543838   6.708407   1.630876
 16 1    4.075745   4.980829   1.681103
 17 2    5.066371   8.079335   0.473105
 18 2    9.386602   0.694627   7.626286
 19 2    2.673872   7.691672  13.476598
 20 2    6.752611   4.731888   0.515258
 21 2    2.431843   2.777579   0.472348
 22 2    1.816072   7.961732   6.553892
 23 2    6.391341   5.777771   7.783076
 24 2    2.782841   4.458699   7.849267
 25 3    1.035023   1.432855   0.404083
 26 3    4.183120   3.559667  13.927422
 27 3    2.491802   4.218696   1.769897
 28 3    1.793345   3.566908  14.737072
 29 3    3.767187   2.110359   1.711529
 30 3    4.160428   1.119299  14.224666
 31 3    2.972824   7.387698   5.106121
 32 3    5.891776  -0.113908   8.436276
 33 3    5.184789   1.197897   6.419033
 34 3    0.144357   7.001760   6.771426
 35 3    7.577847   0.932560   6.966416
 36 3    2.444357   6.294831   7.322251
 37 3    2.329125   4.029383  12.383355
 38 3    4.545282   4.543646  11.420983
 39 3    6.750396   3.911935   7.391391
 40 3    3.735510   2.781899   7.638451
 41 3    8.668865  -0.146187  14.490699
 42 3   -2.987672   6.625734   0.616441
 43 3   -2.640815   7.773519  13.505465
 44 3    3.946250   6.664931   1.186500
 45 3    8.623909   0.620322   1.939237
 46 3    1.607581   6.870526   0.238043
 47 3    5.127347   0.058892   1.911236
 48 3   -0.566994   6.557662   2.987728
 49 3    2.304948   3.990162   6.028340
 50 3    0.265680   2.801600   3.715925
 51 3    0.213790   2.407271   6.728838
 52 3    7.505069   4.062410  13.442599
 53 3   -1.278384   3.751773   1.570209
 54 3    5.948304   2.966669   0.549467
 55 3   -0.040391   5.220823  14.690921
 56 3    5.755450   4.808633   2.177692
 57 3    9.588793   0.127059   5.782203
 58 3   -3.156850   6.948380   4.163212
 59 3   -1.991067   5.958886   6.100600
 60 3    5.643451   6.099458   9.543972
 61 3   -1.389528   5.461435   8.905639
 62 3   -3.004143   7.716574   7.807763
 63 3    4.590081   5.096637   7.548329
 64 3    2.479909   3.642152   9.582821
 65 3    0.846271   4.514901   7.950211
 66 3    0.758433   7.383352  13.494586
 67 3    6.962196   1.243051  13.373977
 68 3    2.237496   7.933690  11.601689
 69 3    4.060022   6.632177  12.628134
 70 3    8.357712   0.287441   9.219785
 71 3    1.066576   1.656683   8.973752
 72 3   -0.267663   2.678295  11.399710
