LAMMPS data file via write_data, version 7 Feb 2024, timestep = 6461, units = metal

72 atoms
72 atom types

0.0915609719772899 9.42273702802242 xlo xhi
-0.07048626062844254 8.31011026062831 ylo yhi
0.08151843372532092 14.905495566274709 zlo zhi
-4.432454358221547 0.8798514412562347 -0.28147013077341954 xy xz yz

Masses

1 1
2 1
3 1
4 1
5 1
6 1
7 1
8 1
9 1
10 1
11 1
12 1
13 1
14 1
15 1
16 1
17 1
18 1
19 1
20 1
21 1
22 1
23 1
24 1
25 1
26 1
27 1
28 1
29 1
30 1
31 1
32 1
33 1
34 1
35 1
36 1
37 1
38 1
39 1
40 1
41 1
42 1
43 1
44 1
45 1
46 1
47 1
48 1
49 1
50 1
51 1
52 1
53 1
54 1
55 1
56 1
57 1
58 1
59 1
60 1
61 1
62 1
63 1
64 1
65 1
66 1
67 1
68 1
69 1
70 1
71 1
72 1

Atoms # atomic

1 1 0.12953206517976956 6.088954211623208 8.276142738019987 0 0 0
2 2 5.416821738585277 2.7963119445080302 7.1182281973415655 0 0 0
3 3 1.0739270683140791 4.578848971012866 13.489311641560777 0 0 0
4 4 5.4939822000860215 1.7738584905350276 1.761266337697732 0 0 0
5 5 1.0063465225862371 2.910191241616365 10.20773446591701 0 0 0
6 6 6.760902619396914 0.14109763213825605 9.945316228159111 0 0 0
7 7 4.9126680673986804 6.241908518416878 11.138699342069772 0 0 0
8 8 0.9676525164944015 3.1070885242017883 5.300706528354856 0 0 0
9 9 -1.525345903186897 6.353173109523009 4.449726847195923 0 0 0
10 10 4.561663834056269 7.6179744187943434 4.384883400426498 0 0 0
11 11 -0.8950854807877776 7.977373113544984 13.599041856916225 0 -1 0
12 12 7.696585368769174 2.585567336230086 12.50452167932009 0 0 0
13 13 3.850550277533541 3.1533379180574674 12.247324304642845 0 0 0
14 14 -0.40406317514317175 2.3406034123507613 2.154983652476897 0 0 0
15 15 0.5438382810720429 6.708407345410252 1.6308756342059556 0 0 0
16 16 4.075745253639077 4.9808287315518935 1.6811031847991875 0 0 0
17 17 5.06637125479124 8.079334810901702 0.47310526831215227 -1 -1 0
18 18 9.386601830643036 0.6946271275138527 7.6262859294218845 -1 0 0
19 19 2.673872427488435 7.691672398360691 13.47659750937057 0 -1 -1
20 20 6.752610712321421 4.731888446763483 0.5152575862366494 -1 0 0
21 21 2.4318432435274406 2.7775787975656914 0.47234800048741804 0 0 0
22 22 1.8160719296268926 7.961731950082248 6.553891621880736 0 -1 0
23 23 6.391341330929726 5.7777707136213134 7.783075917073174 -1 0 0
24 24 2.7828414511770228 4.4586993193602575 7.849266711343514 0 0 0
25 25 1.035022782317243 1.4328550834186033 0.40408258466551616 0 0 0
26 26 4.183119686975227 3.5596665962850786 13.92742243657676 0 0 -1
27 27 2.491802400314716 4.218695813750702 1.7698972176623597 0 0 0
28 28 1.7933451010300334 3.566908377774841 14.737071592259285 0 0 -1
29 29 3.767187322285515 2.1103591321016566 1.7115288894777192 0 0 0
30 30 4.160428336426744 1.1192987956040683 14.224666261832501 0 0 -1
31 31 2.972823534618522 7.387698097231833 5.106120700345566 0 -1 0
32 32 5.891775579634729 -0.11390751064409047 8.436276180653925 0 0 0
33 33 5.184788600826368 1.1978970046325128 6.419033246210954 0 0 0
34 34 0.14435717475946822 7.00175954354985 6.7714255342945675 0 -1 0
35 35 7.577846969744089 0.9325598674520601 6.966415881824823 0 0 0
36 36 2.444357293957227 6.294831456064091 7.322251410832477 0 -1 0
37 37 2.329124986944783 4.029383278319969 12.38335534359132 0 0 0
38 38 4.545282368158258 4.543645674338755 11.420983053658292 0 0 0
39 39 6.750396113619401 3.911935018979113 7.391391003416835 0 0 0
40 40 3.735509735727351 2.7818985989023277 7.638451128675398 0 0 0
41 41 8.668864894279668 -0.14618718703244613 14.4906988385165 -1 0 -1
42 42 -2.9876716865131843 6.62573357748669 0.6164414928180628 0 -1 0
43 43 -2.640815294092403 7.7735192738847365 13.505464844194718 0 -1 -1
44 44 3.946250477659313 6.664930711023175 1.186500319053128 -1 -1 0
45 45 8.623909091160364 0.6203219969452701 1.9392371506132422 -1 0 0
46 46 1.607581025085165 6.87052554480991 0.23804256345760522 0 0 0
47 47 5.1273474112551085 0.058891635822555286 1.9112358372413656 0 1 0
48 48 -0.5669942821930997 6.557661701410574 2.987728115982695 0 0 0
49 49 2.3049481157240823 3.9901617813356065 6.028340427448845 0 0 0
50 50 0.26568041471012527 2.801600476894333 3.715924781431155 0 0 0
51 51 0.21379024002294986 2.407271339755078 6.728838236692042 0 0 0
52 52 7.505068960237925 4.0624095498330846 13.442598873991153 -1 0 -1
53 53 -1.2783843047443457 3.7517732083417235 1.5702086889682598 0 0 0
54 54 5.94830450408608 2.966668798395832 0.5494672000996107 -1 0 0
55 55 -0.04039050910539456 5.220823008178814 14.690920857710278 0 0 -1
56 56 5.755450044850257 4.808632596839647 2.1776918438890966 -1 0 0
57 57 9.58879282904354 0.12705925926776587 5.782203053938415 0 1 0
58 58 -3.15684959434488 6.948380454441746 4.163211952476908 1 0 0
59 59 -1.991067077738649 5.95888580979488 6.100600217869269 0 0 0
60 60 5.643450747898521 6.099457882624753 9.543972477843612 -1 0 0
61 61 -1.3895276844695486 5.461434660628071 8.90563910872751 0 0 0
62 62 -3.0041431567724985 7.716573946277803 7.807762815404904 0 0 0
63 63 4.590080803416727 5.096637001160195 7.548329022540479 -1 0 0
64 64 2.4799087750250246 3.6421516923536528 9.582820868029517 0 0 0
65 65 0.8462705116800758 4.514901136605912 7.950210649817273 0 0 0
66 66 0.7584334413219113 7.383352010960185 13.49458559069626 0 -1 -1
67 67 6.962195671651158 1.2430506867232913 13.37397739848472 0 0 -1
68 68 2.2374960075963433 7.933689542157973 11.601689238988564 0 -1 -1
69 69 4.0600222113769 6.63217688915807 12.62813397725936 0 -1 -1
70 70 8.357711804500653 0.2874409760666559 9.219784824789617 -1 0 0
71 71 1.0665756762746244 1.65668308075431 8.973751824134988 0 0 0
72 72 -0.267662654261261 2.678295491186986 11.399709590256945 0 0 0

Velocities

1 0 0 0
2 0 0 0
3 0 0 0
4 0 0 0
5 0 0 0
6 0 0 0
7 0 0 0
8 0 0 0
9 0 0 0
10 0 0 0
11 0 0 0
12 0 0 0
13 0 0 0
14 0 0 0
15 0 0 0
16 0 0 0
17 0 0 0
18 0 0 0
19 0 0 0
20 0 0 0
21 0 0 0
22 0 0 0
23 0 0 0
24 0 0 0
25 0 0 0
26 0 0 0
27 0 0 0
28 0 0 0
29 0 0 0
30 0 0 0
31 0 0 0
32 0 0 0
33 0 0 0
34 0 0 0
35 0 0 0
36 0 0 0
37 0 0 0
38 0 0 0
39 0 0 0
40 0 0 0
41 0 0 0
42 0 0 0
43 0 0 0
44 0 0 0
45 0 0 0
46 0 0 0
47 0 0 0
48 0 0 0
49 0 0 0
50 0 0 0
51 0 0 0
52 0 0 0
53 0 0 0
54 0 0 0
55 0 0 0
56 0 0 0
57 0 0 0
58 0 0 0
59 0 0 0
60 0 0 0
61 0 0 0
62 0 0 0
63 0 0 0
64 0 0 0
65 0 0 0
66 0 0 0
67 0 0 0
68 0 0 0
69 0 0 0
70 0 0 0
71 0 0 0
72 0 0 0
