LAMMPS data file via write_data, version 7 Feb 2024, timestep = 581, units = metal

72 atoms
3 atom types

-0.12599169655808334 9.457167696558136 xlo xhi
0.048991327242611245 8.331605672757396 ylo yhi
-0.019158193280598257 14.843135193280608 zlo zhi
-4.421032561307394 1.3857785094634738 -0.3125813019489076 xy xz yz

Masses

1 1
2 1
3 1

Atoms # atomic

1 1 0.632041036546352 6.4918426127275035 8.368730614649188 0 0 0
2 1 5.568527731015241 3.265145277285626 7.373738155799732 0 0 0
3 1 1.6531489619142714 4.172525240526889 14.367173575218125 0 0 0
4 1 5.133757149273528 2.043488518643702 2.2299670026682974 0 0 0
5 1 1.2848514629685825 3.6273216181140153 10.003592996503462 0 0 0
6 1 7.246733793904039 0.12042159322542513 9.984499270746399 0 0 0
7 1 5.694959475018788 5.966963897946864 11.50987937674239 0 0 0
8 1 1.145303693604381 3.5576124414418815 5.270522108596552 0 0 0
9 1 -1.0962385984223504 6.607377447133817 4.830385701082157 0 0 0
10 1 3.5407314633897977 7.540139197046347 3.729961687095083 0 0 0
11 1 -0.5001331111279693 7.355365060897835 13.374528098316562 0 0 0
12 1 8.217852845931983 2.2424560258 12.337852810684018 0 0 0
13 1 3.969595498671343 3.1367512809623155 12.246008899485698 0 0 0
14 1 8.679530184528197 1.239400407638806 1.1658627365469694 -1 0 0
15 1 0.623506740068662 7.185633763043892 1.4153897201213186 0 0 0
16 1 4.256246026594459 5.018788211064916 2.268335019498523 0 0 0
17 2 6.3816209009607245 6.788647364873633 14.512300779916481 0 0 -1
18 2 0.31863633401063707 1.1312739354115264 7.833332209387767 1 0 0
19 2 3.620063901679466 7.668266870911396 13.234737409491737 0 0 0
20 2 6.862298431155542 4.1692569891643805 0.6274486494524556 0 0 0
21 2 2.8442511771966523 2.5742716863838706 0.4048313166680622 0 0 0
22 2 6.650899626118365 0.21142113426994613 6.827935340422391 0 1 0
23 2 6.757662992426416 5.970900457411021 7.929706387961938 0 0 0
24 2 2.9979614056993356 4.837827636549098 7.546682338044888 0 0 0
25 3 0.5161321288006581 0.18191652304450673 0.9909352310481612 0 0 0
26 3 4.837332695218373 3.2771677336007667 13.70615758581794 0 0 0
27 3 2.859622785609447 4.093104552243408 1.6598611373308247 0 0 0
28 3 0.9152219264555038 2.9753860793495295 0.016199042915019234 0 0 1
29 3 3.5045012286577264 1.5348401134145218 2.008020726298228 0 0 0
30 3 4.295887583924499 0.5831329528213585 14.239323295626 0 0 0
31 3 2.221757149155134 7.791832580099389 4.922874645068724 0 0 0
32 3 6.284538972036637 0.9564362236483077 8.758737423976049 0 0 0
33 3 5.688759470068863 1.8882745460822152 6.172417258532419 0 0 0
34 3 0.3280833857600736 7.547482580123565 6.979293260471919 0 0 0
35 3 8.384634106536025 1.0027975856644076 6.737894563532713 0 0 0
36 3 2.725997593881404 6.76542181539999 7.643729250487022 0 0 0
37 3 2.6345811823526293 4.189208819730943 12.532484838778936 0 0 0
38 3 5.041867596067386 4.291032527099552 11.283809521391083 0 0 0
39 3 6.996654322964325 4.015031512401773 8.360401537950434 0 0 0
40 3 3.837111569596384 2.9749311177957662 7.693749646910531 0 0 0
41 3 9.383795873390255 0.09725536812267217 14.500924891499327 0 0 0
42 3 7.599278612744304 5.3377806748369485 14.459180993252591 -1 0 -1
43 3 -2.203699272235636 7.701204066429807 12.994180741181582 0 0 0
44 3 3.9753212571228285 6.369212471133496 1.2221626664685181 0 0 0
45 3 8.762584098344442 0.7642578548066306 3.773327452291271 0 0 0
46 3 2.4274774366525005 6.850110557682448 14.529748859799884 0 0 -1
47 3 5.956389985040253 0.3981387958954575 1.8208971557593323 0 0 0
48 3 -0.049324779711034196 6.867980240749662 3.0277657763129557 0 0 0
49 3 2.652703188737366 4.457498811245474 5.625374273122401 0 0 0
50 3 1.49020183397292 2.727271593141555 3.8547640624898754 0 0 0
51 3 1.2732242949898516 2.260924462421843 6.459278512465515 0 0 0
52 3 8.879742387547644 2.921177723279717 13.754680467762446 0 0 0
53 3 7.770703575482603 2.683929688358812 1.7185830868929381 -1 0 0
54 3 5.298485521574681 2.8109501095422282 0.6986721787208003 0 0 0
55 3 -0.8120398606496183 4.929583318471304 0.7619953262958492 0 0 1
56 3 6.046087627400671 4.9820125914906255 2.3053337370720186 0 0 0
57 3 4.580721708538395 6.4852258311743185 4.5764134656637445 0 -1 0
58 3 -2.018771455700962 7.962085396200559 4.643131810317874 0 0 0
59 3 -1.8810920313091468 5.7305455041974165 6.1067972358801885 0 0 0
60 3 5.930049472391122 6.328847434141185 9.853263527053993 0 0 0
61 3 -1.0554426859135615 6.278403910328473 8.89020014333773 0 0 0
62 3 -3.1670461028213426 7.819332294208076 7.609039545384709 0 0 0
63 3 4.9917768252850125 5.233050155979447 7.286895348428106 0 0 0
64 3 2.7152643103898395 4.507632229423332 9.534766390736971 0 0 0
65 3 0.8215251351781836 4.931483612307694 7.591655091519553 0 0 0
66 3 0.2663432036696558 7.579546681983969 11.899102616957688 0 0 0
67 3 7.089403365401601 1.0886230654178297 13.018979873819495 0 0 0
68 3 3.262727032260117 7.3025358037265775 11.35049852105901 0 0 0
69 3 4.964791458028459 6.152022058465168 13.223157990036333 0 0 0
70 3 8.841644547234251 0.6116638577423565 9.50616893470479 0 0 0
71 3 1.4382561637043012 2.132847199157791 9.155332441411419 0 0 0
72 3 -0.18691961463628734 3.0678193434744325 11.114453037564825 0 0 0

Velocities

1 0 0 0
2 0 0 0
3 0 0 0
4 0 0 0
5 0 0 0
6 0 0 0
7 0 0 0
8 0 0 0
9 0 0 0
10 0 0 0
11 0 0 0
12 0 0 0
13 0 0 0
14 0 0 0
15 0 0 0
16 0 0 0
17 0 0 0
18 0 0 0
19 0 0 0
20 0 0 0
21 0 0 0
22 0 0 0
23 0 0 0
24 0 0 0
25 0 0 0
26 0 0 0
27 0 0 0
28 0 0 0
29 0 0 0
30 0 0 0
31 0 0 0
32 0 0 0
33 0 0 0
34 0 0 0
35 0 0 0
36 0 0 0
37 0 0 0
38 0 0 0
39 0 0 0
40 0 0 0
41 0 0 0
42 0 0 0
43 0 0 0
44 0 0 0
45 0 0 0
46 0 0 0
47 0 0 0
48 0 0 0
49 0 0 0
50 0 0 0
51 0 0 0
52 0 0 0
53 0 0 0
54 0 0 0
55 0 0 0
56 0 0 0
57 0 0 0
58 0 0 0
59 0 0 0
60 0 0 0
61 0 0 0
62 0 0 0
63 0 0 0
64 0 0 0
65 0 0 0
66 0 0 0
67 0 0 0
68 0 0 0
69 0 0 0
70 0 0 0
71 0 0 0
72 0 0 0
