 POSCAR to lmp

88 atoms
88 atom types

0.000000   9.555066 xlo xhi
0.000000   9.555066 ylo yhi
0.000000  14.292752 zlo zhi

  0.000000   0.000000   0.000000  xy xz yz

Atoms

 1 1    4.780601   0.009371  10.445998
 2 2    0.002675   4.777775  10.442596
 3 3    4.783473   0.003023   7.407794
 4 4    0.003198   4.780660   7.401290
 5 5    7.285212   0.002307  13.155956
 6 6    2.282493   0.003065  13.152355
 7 7    0.000698   7.283046  13.150907
 8 8    0.008357   2.286066  13.150643
 9 9    2.727314   4.782172  13.194614
 10 10    6.838227   4.777818  13.191780
 11 11    4.785946   2.732012  13.186184
 12 12    4.782146   6.834696  13.191770
 13 13    3.425802   0.007814   4.759029
 14 14    6.143566   0.009439   4.761647
 15 15    0.000500   3.425688   4.752732
 16 16    0.009144   6.139499   4.760765
 17 17    0.002752   0.008829   2.032651
 18 18    0.006943   0.008872   6.022863
 19 19    4.786772   0.002715  13.065305
 20 20    0.006126   4.786411  13.064611
 21 21    6.496912   4.787240   6.059588
 22 22    3.067637   4.780421   6.056149
 23 23    4.785675   6.492097   6.059248
 24 24    4.787459   3.066363   6.059524
 25 25    0.003412   6.034728  13.107759
 26 26   -1.134578   8.420209  13.153431
 27 27    1.141595   8.420589  13.151631
 28 28    0.001686   6.030410  11.796752
 29 29   -1.358071   6.030432  13.171344
 30 30    1.364006   6.032609  13.172760
 31 31    5.463520   0.006231   6.084721
 32 32    4.104637   0.005418   6.083412
 33 33    4.782037   0.006197   8.926896
 34 34    4.785466   1.534693   6.733659
 35 35    4.784574  -1.529973   6.733521
 36 36    2.395208   0.005947   6.715329
 37 37   -1.133551   0.005568   0.447928
 38 38    0.005555   1.147447   0.445271
 39 39    1.142622   0.005947   0.446127
 40 40    0.004848   0.008851   4.027757
 41 41    4.784459   8.196239  13.128537
 42 42    3.754730   5.808434  13.193192
 43 43    5.810187   5.806257  13.191775
 44 44    3.532319   8.196414  13.172062
 45 45    6.033679   8.196034  13.173863
 46 46    4.781373   8.199567  11.818884
 47 47    8.199709   4.782115  13.128196
 48 48    5.812087   3.754915  13.188982
 49 49    8.200825   3.531942  13.171212
 50 50    8.197984   4.777797  11.817188
 51 51   -1.702278   0.009156   5.392255
 52 52    1.716372   0.008343   5.390946
 53 53    0.004400   4.782093  11.753604
 54 54    0.002937   4.779218   8.921943
 55 55    0.005516   3.531920  11.796619
 56 56    1.364995   4.779974  11.818605
 57 57    0.006171   5.460080   6.081027
 58 58    0.001849   4.103174   6.077011
 59 59   -1.527478   4.783950   6.730439
 60 60    1.535417   4.780541   6.728719
 61 61   -2.382204   3.923512   6.730407
 62 62    4.786359   1.367364  13.125744
 63 63    3.756630   3.757092  13.190399
 64 64    6.035579   1.367159  13.171070
 65 65    3.534219   1.367539  13.169269
 66 66    4.783274   1.370692  11.816091
 67 67    3.534632   0.002890  13.108830
 68 68    1.145425   1.144565  13.151499
 69 69    5.642186   3.926801   6.059556
 70 70    3.927548   3.923392   6.057837
 71 71    4.784684   0.008626   4.760338
 72 72    5.464621  -1.526765   5.410447
 73 73    7.849566   1.717563   4.757190
 74 74    7.853888  -1.703064   4.761206
 75 75    0.004822   4.782593   4.756748
 76 76    1.538390   5.459960   5.408457
 77 77   -1.524505   5.463370   5.410176
 78 78    1.717473   7.851189   4.759897
 79 79    5.641294   5.639668   6.059418
 80 80    3.926656   5.636259   6.057698
 81 81    6.035992   0.002511  13.110630
 82 82    8.424318   1.144186  13.153299
 83 83    1.713151   1.716751   4.755881
 84 84    4.103201   0.008593   7.602514
 85 85    0.007242   3.536238  13.107627
 86 86    3.753957   2.395772  11.820306
 87 87    7.168083   1.717530   7.599365
 88 88    1.363907   4.103930   1.827297
