LAMMPS data file via write_data, version 7 Feb 2024, timestep = 315, units = metal

88 atoms
3 atom types

-0.08057431926113015 10.442448319261121 xlo xhi
-0.08089103196406577 10.442780031964064 ylo yhi
0.9172487209231508 10.952150279076871 zlo zhi
0.0027654769486928654 -0.0054606124837231935 0.003054704991930026 xy xz yz

Masses

1 1
2 1
3 1

Atoms # atomic

1 1 7.401286020416353 4.732940565712945 5.248456132076907 0 0 0
2 1 2.062354827227924 4.733339727788168 5.249367577734194 0 0 0
3 1 4.732883399555151 7.325678565782719 5.113966787273741 0 0 0
4 1 4.731133917149978 2.140281776501567 5.112377314711974 0 0 0
5 1 7.397070261365227 4.735710885181172 10.26703627821297 0 0 -1
6 1 2.0590872473061963 4.73609891598486 10.265874864890135 0 0 -1
7 1 4.7274820307052705 2.1436460274592384 10.131419135958517 0 0 0
8 1 4.729228333094073 7.328058639054859 10.129979704244073 0 0 0
9 1 2.136878026913647 9.997547153901177 10.266773646604788 0 0 -1
10 1 7.322055152712741 9.997937444716243 10.265692839412246 0 0 -1
11 1 9.989351588755415 2.0662223727307123 10.129932245793356 0 0 0
12 1 9.990369550704747 7.405517650269664 10.131261402906558 0 0 0
13 1 2.1411772062126886 9.994777858323356 5.248405743426318 0 0 0
14 1 7.325254667182304 9.995172750778712 5.24923126075673 0 0 0
15 1 9.994032903306897 7.402095024535204 5.1124180294291754 0 0 0
16 1 9.993015784728433 2.0638419736398457 5.1138967236990425 0 0 0
17 2 4.729649122654493 9.99786867883051 8.288176460556874 0 0 0
18 2 9.989772825828434 4.735941293549059 8.288225906628586 0 0 0
19 2 4.733755021461934 9.994222204201577 3.2714191715339505 0 0 0
20 2 9.993901645189023 4.732465155174699 3.2714952153326897 0 0 0
21 2 9.994562179066074 9.994678134195095 7.091285909984549 0 0 0
22 2 9.995867520039507 9.995097318266742 2.0730066763568513 0 0 0
23 2 4.732967711585335 4.7332881594659 2.073302076711651 0 0 0
24 2 4.731722010131364 4.732821943970038 7.091344742888655 0 0 0
25 3 9.993389732355858 1.0628779054385027 1.8522950967505787 0 0 0
26 3 9.989899357889065 3.1118525464611997 8.399671870890012 0 0 0
27 3 8.575613570812097 0.8583563744451855 9.532040410731081 0 0 0
28 3 0.8786102598991311 0.8577736613378019 9.532217070485903 0 0 0
29 3 8.605476412478678 3.323497363836213 10.864625942708953 0 0 -1
30 3 0.849637271186085 3.3239060313494058 10.863892625189768 0 0 -1
31 3 6.355943003199275 4.73368389594569 1.9619783991006134 0 0 0
32 3 8.399230368403408 4.735951279298576 8.509619944273247 0 0 0
33 3 6.141522564822856 6.119573514635702 9.53235715780133 0 0 0
34 3 6.140598954675698 3.3524280230881143 9.53312752570202 0 0 0
35 3 8.605454806614498 6.14952850897664 10.864898106205025 0 0 -1
36 3 3.107318738144559 4.733022384070899 6.979690307351692 0 0 0
37 3 4.732055300270596 6.3249190738910475 6.87097662028484 0 0 0
38 3 4.731215087028519 3.1417213485929967 6.869766288781982 0 0 0
39 3 6.355017231348346 4.733029151558346 6.978750408212541 0 0 0
40 3 1.06269935047695 4.732351092390609 3.49224382391375 0 0 0
41 3 3.320409642984338 6.116407718234379 4.515732171728078 0 0 0
42 3 3.319228765097028 3.3490187012449977 4.514824050849267 0 0 0
43 3 0.8540874983941772 3.3197059859282794 5.847367151205951 0 0 0
44 3 0.8541205457931969 6.145683282046337 5.84709387598903 0 0 0
45 3 3.108774830620286 4.733735996456199 1.9612515628962308 0 0 0
46 3 1.0591806884315869 4.736009475797301 8.508971306188354 0 0 0
47 3 3.3154696894367004 6.120169503768555 9.532164657055736 0 0 0
48 3 3.315332613959804 3.3524726729302134 9.532734432215289 0 0 0
49 3 0.8505188672571236 6.148742933249281 10.864395887725818 0 0 -1
50 3 4.733246623503931 6.324759534217093 1.8523572654588203 0 0 0
51 3 4.729781541392519 8.37366772440194 8.3998315063677 0 0 0
52 3 6.112527081030451 8.585732307802134 10.86382884309773 0 0 -1
53 3 3.345358970136232 8.585325615824344 10.864537701305963 0 0 -1
54 3 8.371698641052092 9.995529680738318 1.9610422738080633 0 0 0
55 3 6.322128617171986 9.997890238899545 8.508709036069536 0 0 0
56 3 8.578233937315234 8.614281003342569 9.53254154604022 0 0 0
57 3 6.110666959002783 0.8868977907895097 10.864391126385609 0 0 -1
58 3 1.0958453561958683 9.995499109669467 1.961748711368468 0 0 0
59 3 9.99528383532361 8.404614206712266 1.853575589473528 0 0 0
60 3 9.990708745953455 6.3596659274601395 8.400839997575327 0 0 0
61 3 0.8804582192675515 8.614223383638643 9.532913368225971 0 0 0
62 3 1.0948485976705458 9.994883066665178 6.978659328779369 0 0 0
63 3 9.99407141162865 8.403585576801415 6.869778024792886 0 0 0
64 3 9.99216699704975 1.0631050713103434 6.8708858777310144 0 0 0
65 3 8.37022095268572 9.994897532423716 6.979542017013207 0 0 0
66 3 4.732105200157102 1.0939328212414323 3.3825630099717974 0 0 0
67 3 6.1450914393580645 3.3483181178228656 4.514599519084053 0 0 0
68 3 6.114231854143699 0.8838489105266626 5.847002291629991 0 0 0
69 3 3.347412552359759 0.8838727860182578 5.846526258332677 0 0 0
70 3 4.732353149930268 3.142789222562202 1.8537459329689498 0 0 0
71 3 4.72782306453987 1.0978834351284767 8.401068417433855 0 0 0
72 3 3.1390634556531642 9.997829722030513 8.509309770780098 0 0 0
73 3 9.995027011227297 6.355780768824718 3.382536727533871 0 0 0
74 3 0.8849843473517537 8.610144991652636 4.514589934950956 0 0 0
75 3 8.58211982066847 8.61084332185022 4.514764381756929 0 0 0
76 3 8.610283731965849 6.145689777850341 5.846554430577918 0 0 0
77 3 8.403988342094143 4.732327184068001 3.491089104773286 0 0 0
78 3 9.994184106788566 3.1084483930606237 3.383601254969647 0 0 0
79 3 3.1437766883077516 9.994119758399725 3.4910314899087815 0 0 0
80 3 0.8821531422944584 0.8546970970942993 4.515241648385049 0 0 0
81 3 3.3492688074067267 8.581862619017658 5.847077849169066 0 0 0
82 3 4.734027173507445 8.370253537118966 3.383688336236763 0 0 0
83 3 6.145018820375747 6.1165109797920705 4.5153190085626145 0 0 0
84 3 6.11699038250899 8.58155213140436 5.847328614900146 0 0 0
85 3 3.3425641453978447 0.8876649414903349 10.864862655791415 0 0 -1
86 3 8.609383152212642 3.32001399462011 5.847060415345947 0 0 0
87 3 6.3256270486850354 9.994141334614065 3.4921087340921075 0 0 0
88 3 8.580526642895503 0.8545914323929098 4.5156098440054375 0 0 0

Velocities

1 0 0 0
2 0 0 0
3 0 0 0
4 0 0 0
5 0 0 0
6 0 0 0
7 0 0 0
8 0 0 0
9 0 0 0
10 0 0 0
11 0 0 0
12 0 0 0
13 0 0 0
14 0 0 0
15 0 0 0
16 0 0 0
17 0 0 0
18 0 0 0
19 0 0 0
20 0 0 0
21 0 0 0
22 0 0 0
23 0 0 0
24 0 0 0
25 0 0 0
26 0 0 0
27 0 0 0
28 0 0 0
29 0 0 0
30 0 0 0
31 0 0 0
32 0 0 0
33 0 0 0
34 0 0 0
35 0 0 0
36 0 0 0
37 0 0 0
38 0 0 0
39 0 0 0
40 0 0 0
41 0 0 0
42 0 0 0
43 0 0 0
44 0 0 0
45 0 0 0
46 0 0 0
47 0 0 0
48 0 0 0
49 0 0 0
50 0 0 0
51 0 0 0
52 0 0 0
53 0 0 0
54 0 0 0
55 0 0 0
56 0 0 0
57 0 0 0
58 0 0 0
59 0 0 0
60 0 0 0
61 0 0 0
62 0 0 0
63 0 0 0
64 0 0 0
65 0 0 0
66 0 0 0
67 0 0 0
68 0 0 0
69 0 0 0
70 0 0 0
71 0 0 0
72 0 0 0
73 0 0 0
74 0 0 0
75 0 0 0
76 0 0 0
77 0 0 0
78 0 0 0
79 0 0 0
80 0 0 0
81 0 0 0
82 0 0 0
83 0 0 0
84 0 0 0
85 0 0 0
86 0 0 0
87 0 0 0
88 0 0 0
