LAMMPS data file via write_data, version 7 Feb 2024, timestep = 2913, units = metal

88 atoms
88 atom types

0.12736643507160691 9.427699564928584 xlo xhi
0.10008121913617485 9.454984780863814 ylo yhi
0.04872345026681421 14.244028549733132 zlo zhi
0.10196559365209643 0.04499733242796765 0.9998879200446152 xy xz yz

Masses

1 1
2 1
3 1
4 1
5 1
6 1
7 1
8 1
9 1
10 1
11 1
12 1
13 1
14 1
15 1
16 1
17 1
18 1
19 1
20 1
21 1
22 1
23 1
24 1
25 1
26 1
27 1
28 1
29 1
30 1
31 1
32 1
33 1
34 1
35 1
36 1
37 1
38 1
39 1
40 1
41 1
42 1
43 1
44 1
45 1
46 1
47 1
48 1
49 1
50 1
51 1
52 1
53 1
54 1
55 1
56 1
57 1
58 1
59 1
60 1
61 1
62 1
63 1
64 1
65 1
66 1
67 1
68 1
69 1
70 1
71 1
72 1
73 1
74 1
75 1
76 1
77 1
78 1
79 1
80 1
81 1
82 1
83 1
84 1
85 1
86 1
87 1
88 1

Atoms # atomic

1 1 4.602701363214805 2.3259812671383937 10.605610504416127 0 0 0
2 2 9.285963105144312 4.998618604193142 10.729628477294565 -1 0 0
3 3 4.485428299560667 1.4236377930902382 7.047339486009969 0 0 0
4 4 0.5323763317962391 4.956366767935297 6.983769324828524 0 0 0
5 5 7.294572889418712 9.762972477567263 14.11604705676899 0 -1 0
6 6 2.165240633121187 10.151571581306287 13.74405068351386 0 -1 0
7 7 0.425738450914757 7.804733927138567 12.446764135878501 0 0 0
8 8 9.352024901793762 2.768323528272596 13.391257618550908 -1 0 0
9 9 3.2889126270545663 5.488050563034245 11.897935334026613 0 0 0
10 10 6.98079333191089 5.4855023805770955 13.307324964225865 0 0 0
11 11 4.512520428541306 1.8412691517535897 0.09120771283254925 0 0 1
12 12 4.837811327757691 8.33984948911151 11.894502570621835 0 0 0
13 13 2.677203451138923 0.39751474016674726 4.035587736863435 0 0 0
14 14 6.6500579678657425 9.71767311104228 4.149340111160466 0 -1 0
15 15 9.23796748521508 3.0841143115889182 3.918031317276049 -1 0 0
16 16 9.357005619033433 6.960175419836688 4.141340036958799 -1 0 0
17 17 9.237120008352493 0.4860172287600125 2.0615839894327714 -1 0 0
18 18 9.324079858532462 0.46003493810052937 5.1556728931588465 -1 0 0
19 19 4.584867997800487 8.1240740132178 0.9762444815193476 0 -1 1
20 20 0.6498090831814791 5.505780926992079 14.10630730752367 0 0 0
21 21 6.839988100275965 5.525270212242774 5.923666145174393 0 0 0
22 22 3.017721486275193 5.861429257519072 5.213610343290661 0 0 0
23 23 5.080854022939613 7.652187665318597 6.380292860666238 0 0 0
24 24 4.869657335942227 4.056144342728352 5.264686264092782 0 0 0
25 25 1.1533994251079904 6.96477680354404 14.043316833299768 0 0 0
26 26 8.918131231287044 8.7059906256066 13.963546940679677 -1 0 0
27 27 1.0878637193492233 9.611307887732309 12.224442241755737 0 0 0
28 28 9.288489100897037 6.939152118612313 10.766706296026095 -1 0 0
29 29 7.947503351062283 7.062599026434777 12.705760355200884 -1 0 0
30 30 2.0859896693723097 7.002064543202717 11.856577874365808 0 0 0
31 31 5.825127424399269 1.363287288194086 5.64655174239503 0 0 0
32 32 3.3875770409626846 1.5032438813906832 5.451762435702562 0 0 0
33 33 5.159537901829042 2.000409069409113 8.771104751635116 0 0 0
34 34 4.636720478311357 3.3056736437497563 6.593009834348308 0 0 0
35 35 4.643161878686006 8.847032633758394 7.251252869824606 0 -1 0
36 36 2.720446227181171 1.1187252913536512 7.792486753371248 0 0 0
37 37 8.092404421271008 9.027708743777245 1.649073475696603 -1 -1 0
38 38 8.934972479227866 1.6601017857301348 1.102323629488083 -1 0 0
39 39 1.0746342559828594 9.099630430882009 1.1887788476988745 0 -1 0
40 40 9.263840343745184 0.462314129959442 3.607834338275131 -1 0 0
41 41 4.707011304924891 8.362478480679586 13.830102479547719 0 0 0
42 42 4.175547365443206 6.854101302111437 10.845382496573707 0 0 0
43 43 5.72377056785879 6.737456979902759 12.53391114807176 0 0 0
44 44 3.353997261111997 9.502875430947032 12.354010644715823 0 0 0
45 45 6.542770948136558 9.075134867776809 12.461650492871888 0 0 0
46 46 5.063604317621135 9.780102581918596 10.620212725753614 0 0 0
47 47 8.42696770955814 4.577790832196806 0.3505319858978664 0 0 1
48 48 5.569777840018392 4.401273509295905 14.224432828554956 0 0 0
49 49 7.643204235004878 3.666351569083589 13.304948713114229 0 0 0
50 50 7.494239849256931 5.111708668042359 11.46929659401877 0 0 0
51 51 7.937174081093751 9.652507718132995 5.6064654492630455 -1 -1 0
52 52 1.5731307779822161 9.654114385550812 5.5779370234722885 0 -1 0
53 53 0.45481274824902074 5.307971403096833 12.585618257569644 0 0 0
54 54 0.37350209201375617 5.406082066907185 8.870405433204162 0 0 0
55 55 9.164707961584025 3.2221224244058226 11.509934190408005 -1 0 0
56 56 1.9146068311522684 4.800227994263631 10.715467462383256 0 0 0
57 57 0.31392064715953727 6.643381102195451 6.0421349491397 0 0 0
58 58 0.8110957620777974 3.677623560617919 5.5459663805005075 0 0 0
59 59 7.893713636908171 5.008156339784904 6.923616724799534 -1 0 0
60 60 2.3736232436189595 5.3592895888650975 6.5238020642197245 0 0 0
61 61 9.367382399776515 3.2482694337355653 7.783763231035838 -1 0 0
62 62 4.548512052898994 0.2853666450883314 1.2596171899904438 0 0 1
63 63 3.5115745414230237 3.9997911426866306 13.125937167762572 0 0 0
64 64 6.319012352562273 1.1405013530100123 0.19657147560603636 0 0 1
65 65 2.698172469441665 1.3087600563417292 0.5588036332271958 0 0 1
66 66 4.781385714114493 2.058541961746259 12.523190543796606 0 0 0
67 67 3.0474502952538014 8.056962359269745 0.856345406208331 0 -1 1
68 68 1.7883351216941714 2.365268569857253 12.629866689616389 0 0 0
69 69 6.3874530554665965 4.286832177788137 5.124166355499994 0 0 0
70 70 3.7767974163380016 4.765914145130422 4.4429210930197796 0 0 0
71 71 4.70750201173965 9.704059865665592 3.8477735821281644 0 -1 0
72 72 5.920616615573395 8.319356074756621 5.273775312722881 0 -1 0
73 73 7.589440794740306 2.019766510890128 3.9644659060752545 0 0 0
74 74 7.82684583621524 8.16459789833266 3.8812600406670548 0 -1 0
75 75 9.199681015528334 5.034298408064469 3.784870665790154 -1 0 0
76 76 1.7918384856009595 6.096210258988882 4.3087835042199485 0 0 0
77 77 7.686318433322338 6.296323450000121 4.889431937002113 -1 0 0
78 78 1.586185075171072 8.177888554477102 3.867630878341012 0 0 0
79 79 5.971572444634966 6.461228108415991 6.786012590556761 0 0 0
80 80 3.854529991376487 7.0829159989475 5.648286998908431 0 0 0
81 81 6.090802380410982 7.875742823483144 1.2085919548103756 0 -1 1
82 82 8.167933073500059 1.3712925629045765 12.746769482298786 0 0 0
83 83 1.596586188279021 2.0422646063979997 3.879826132616915 0 0 0
84 84 2.695733425693062 2.1051352075205125 10.32059787978718 0 0 0
85 85 1.1322493903488775 3.0695907689689133 0.10654929023199322 0 0 1
86 86 4.329341482942812 4.228466416694266 10.854545145525577 0 0 0
87 87 6.496017382762508 2.677262542602918 10.831576874166831 0 0 0
88 88 3.5524735733687276 6.254940903570972 13.663306937329343 0 0 -1

Velocities

1 0 0 0
2 0 0 0
3 0 0 0
4 0 0 0
5 0 0 0
6 0 0 0
7 0 0 0
8 0 0 0
9 0 0 0
10 0 0 0
11 0 0 0
12 0 0 0
13 0 0 0
14 0 0 0
15 0 0 0
16 0 0 0
17 0 0 0
18 0 0 0
19 0 0 0
20 0 0 0
21 0 0 0
22 0 0 0
23 0 0 0
24 0 0 0
25 0 0 0
26 0 0 0
27 0 0 0
28 0 0 0
29 0 0 0
30 0 0 0
31 0 0 0
32 0 0 0
33 0 0 0
34 0 0 0
35 0 0 0
36 0 0 0
37 0 0 0
38 0 0 0
39 0 0 0
40 0 0 0
41 0 0 0
42 0 0 0
43 0 0 0
44 0 0 0
45 0 0 0
46 0 0 0
47 0 0 0
48 0 0 0
49 0 0 0
50 0 0 0
51 0 0 0
52 0 0 0
53 0 0 0
54 0 0 0
55 0 0 0
56 0 0 0
57 0 0 0
58 0 0 0
59 0 0 0
60 0 0 0
61 0 0 0
62 0 0 0
63 0 0 0
64 0 0 0
65 0 0 0
66 0 0 0
67 0 0 0
68 0 0 0
69 0 0 0
70 0 0 0
71 0 0 0
72 0 0 0
73 0 0 0
74 0 0 0
75 0 0 0
76 0 0 0
77 0 0 0
78 0 0 0
79 0 0 0
80 0 0 0
81 0 0 0
82 0 0 0
83 0 0 0
84 0 0 0
85 0 0 0
86 0 0 0
87 0 0 0
88 0 0 0
