 POSCAR to lmp

72 atoms
3 atom types

0.000000  10.433240 xlo xhi
0.000000  10.237725 ylo yhi
0.000000  10.417833 zlo zhi

  0.285387  -0.258537  -0.386412  xy xz yz

Atoms

 1 1    2.164317   1.943686   1.931019
 2 1    7.352970   6.933050   2.978327
 3 1    7.301410   2.160270   7.118127
 4 1    1.972137   7.627876   8.139985
 5 1    7.373109   9.540627  -0.015517
 6 1    3.884900   9.991776  -0.062382
 7 1    9.790428   6.902683   0.202733
 8 1    9.775770   2.982681   9.907660
 9 1    9.996613  -0.232044   6.818858
 10 1    0.072441  -0.159060   3.191666
 11 1    4.913943   1.212390   5.145153
 12 1    4.297315   8.179140   5.208644
 13 1    1.972255   5.035137   5.573260
 14 1    8.852109   4.882398   5.321692
 15 1    4.737504   4.409847   8.108533
 16 1    4.936447   4.630482   1.308612
 17 2   -0.367600  -0.461013  10.187822
 18 2    5.116247   4.842106   4.892137
 19 2    2.166384   4.560118  10.118220
 20 2    7.220117   4.528691  10.165127
 21 2   -0.090531   2.303484   4.890442
 22 2   -0.079150   7.450025   4.954384
 23 2    5.172021  -0.143622   2.484122
 24 2    4.892293   9.824257   7.646148
 25 3    7.406437   3.228820   8.488820
 26 3    6.078367   0.996757   7.702741
 27 3    8.941500   2.323036   6.411038
 28 3    0.790129   5.914983   0.356290
 29 3    0.890214   3.366676   9.117401
 30 3    3.636925   3.542883   9.205093
 31 3    3.709059   5.957949   0.826945
 32 3    2.393366   3.560533   1.286306
 33 3    2.279703   5.951032   8.556782
 34 3    6.189938   3.621443   0.570649
 35 3    5.653469   5.362341   9.246971
 36 3    8.920495   3.969739   0.743451
 37 3    8.626047   5.690097   9.372306
 38 3    7.334296   6.240413   1.367741
 39 3    1.296944   7.538326   6.524604
 40 3    3.571442   8.236961   7.787349
 41 3    4.971053   6.792540   4.398963
 42 3    5.680753   8.798868   6.099087
 43 3    4.236317   9.284012   3.864126
 44 3    5.462468   4.355708   2.969481
 45 3    0.316663   0.105198   8.387098
 46 3    9.390901   9.078621   5.575574
 47 3    0.666482   0.660591   5.805029
 48 3    7.122730   4.926661   5.125064
 49 3    5.119382   2.900862   5.514643
 50 3    3.192047   4.476973   4.476407
 51 3    4.749773   5.537023   6.737739
 52 3    9.084305   6.440468   6.154809
 53 3    9.295847   3.761210   3.998483
 54 3    3.638471   0.748749   6.302634
 55 3    6.107633   1.036654   3.795246
 56 3    4.389938   8.899203   1.246392
 57 3    6.222096   0.520592   0.891370
 58 3    6.835199   8.581463   2.671300
 59 3    3.794776   1.428479   2.309090
 60 3   -0.009893   1.866162   0.266920
 61 3   10.119273   9.603361   1.660110
 62 3    9.305600   1.076704   3.674140
 63 3    1.080744   8.533852   3.726371
 64 3    1.083751   3.566595   5.904356
 65 3    1.449820   2.298904   3.495335
 66 3    2.162343   9.899288   0.149547
 67 3   10.119934   7.856718   9.683954
 68 3    8.115078  -0.144441   9.702934
 69 3    3.475398   0.546498   9.021791
 70 3    6.065085   8.927915   9.029042
 71 3    0.923728   5.815174   4.418103
 72 3    9.044511   7.177520   3.336655
