LAMMPS data file via write_data, version 7 Feb 2024, timestep = 2340, units = metal

72 atoms
3 atom types

0.14922038321073067 10.284019616789251 xlo xhi
-0.07390719944157503 10.311632199441574 ylo yhi
0.2861489599076853 10.131684040091592 zlo zhi
-0.16048044311791204 0.10405062788789482 -0.04579768175475214 xy xz yz

Masses

1 1
2 1
3 1

Atoms # atomic

1 1 1.0263531745199275 2.9604616972147717 2.131271019184909 0 0 0
2 1 6.94534239192633 7.190602611591845 3.2207570525202502 0 0 0
3 1 7.368889624203613 1.8784541354745599 6.838420043663936 0 0 0
4 1 2.5063915423859653 8.238291762507963 8.547203161388287 0 0 0
5 1 7.442929827846691 9.467078982549008 10.028937530663336 0 0 -1
6 1 3.8085328021965115 0.37347011522427054 0.6532086609286888 0 1 0
7 1 9.718529523965248 7.745972290001015 0.85371768398504 0 0 0
8 1 9.661519075555722 3.4471143321268434 9.064214742704516 0 0 0
9 1 0.584769551878627 10.211762957668173 6.783322647952189 1 -1 0
10 1 0.599094181721897 -0.06906191673415026 3.2842428382416173 0 0 0
11 1 4.316890903330468 1.4147586089421194 4.75140887730372 0 0 0
12 1 4.014665828012294 8.005995108391726 4.981368704399658 0 0 0
13 1 1.5520029781604334 5.257884991352175 6.096173319060555 0 0 0
14 1 7.860884693204686 4.3411469959431725 5.267743108367085 0 0 0
15 1 5.641075375004854 4.414291291221909 7.6992373754517205 0 0 0
16 1 4.499872230718936 3.9578089219088723 1.3268430602504995 0 0 0
17 2 0.4646287275833529 0.126687714222896 9.815467589423024 0 0 0
18 2 4.72943056704012 4.760883920370623 4.692550803795636 0 0 0
19 2 1.8571529632103756 5.533305079000108 0.4348903072448682 0 0 1
20 2 7.332392537491518 5.511605374790923 0.4704679255084378 0 0 1
21 2 10.233928219881365 2.306140133115665 5.115102918656006 -1 0 0
22 2 9.552460759370547 7.318720628678213 4.7673092781546815 -1 0 0
23 2 5.514360363966326 9.909410251142267 2.6538952279842225 0 -1 0
24 2 5.14917554506087 9.725338917735076 7.401802360935503 0 0 0
25 3 7.164823754082512 2.283460383216865 8.471376585474502 0 0 0
26 3 6.944329755038585 0.21695320859961906 6.710618148686621 0 0 0
27 3 9.127862684280442 1.7767880979056008 6.725703064710266 0 0 0
28 3 1.129853146451669 7.09666469133484 1.312945763882194 0 0 0
29 3 1.1152041279125906 4.185807802723553 9.127949869594982 0 0 0
30 3 4.140468462472105 3.983480553480954 8.328438387352097 0 0 0
31 3 3.738839692934008 5.547742820985024 0.9968128502301433 0 0 0
32 3 1.30172404054821 4.696677011916779 2.1244737180907873 0 0 0
33 3 2.254301792053143 6.540381677647986 8.612335409121153 0 0 0
34 3 6.20883488702152 4.210646246186984 1.4082903894521523 0 0 0
35 3 6.31793489503276 5.687692531241908 8.765916117237996 0 0 0
36 3 8.606366073325956 4.065932374753701 0.5701794909668123 0 0 0
37 3 8.992608243126492 6.522532464089417 9.714979607713682 0 0 0
38 3 6.545772407894036 6.956933124665786 1.5437070135268307 0 0 0
39 3 1.7606470537495764 8.72207496000062 6.904266601325832 0 0 0
40 3 4.108712820888221 8.123538607592861 7.9153749053795535 0 0 0
41 3 4.438976871543724 6.633512488472891 3.95908860559035 0 0 0
42 3 5.497849531564463 8.468254502294412 5.767025561765397 0 0 0
43 3 3.9386498803925516 9.177447698049006 3.694460311804651 0 0 0
44 3 4.153125979860276 3.8727021993545065 3.004179763715278 0 0 0
45 3 1.3420509491224266 0.6835295765392295 8.177022301971038 0 0 0
46 3 8.935935748352298 8.470166893343494 6.055650698215679 0 0 0
47 3 1.521547720577806 0.9198735845980536 5.7111149589098735 0 0 0
48 3 6.636939189930938 4.701342737101136 4.075177197144076 0 0 0
49 3 4.856792300531037 2.8833490750667425 5.49761962275102 0 0 0
50 3 2.8307146485028856 4.589498734903358 5.185768153307304 0 0 0
51 3 5.2363291556041345 5.56582731551248 6.433563051420305 0 0 0
52 3 8.429041483987593 5.875439303136484 5.775641406580109 0 0 0
53 3 9.018780750286362 3.6163245252420646 4.191604753152608 0 0 0
54 3 4.2251698702646765 0.5119122721621359 6.223020052374142 0 0 0
55 3 5.821111818446596 1.016010023421853 3.856825077713378 0 0 0
56 3 4.413090401257528 9.233468867994402 1.1742595440939363 0 0 0
57 3 6.720587116257978 0.41822729786145685 1.1593672376435753 0 0 0
58 3 7.067847543617682 8.93328293667765 3.219235040730008 0 0 0
59 3 2.4063227679633408 2.475626474723693 1.2708956929450907 0 0 0
60 3 10.009723143973492 2.0275141754788235 9.940539790681765 -1 0 -1
61 3 9.809520606388617 -0.05865363991459682 1.7941067522580767 0 1 0
62 3 9.417093444554476 0.6994071678763796 4.189798938654476 0 0 0
63 3 0.4783018237239188 8.65085887326044 3.6841189925910753 0 0 0
64 3 0.7116623400739551 3.7653691386826127 6.351784963438562 0 0 0
65 3 1.5046405873129274 2.6335341778389325 3.7848585522811526 0 0 0
66 3 2.0392385281190117 10.152851105328912 0.7393317357793278 0 0 0
67 3 0.21271067453876605 8.608650301185241 9.27902448881174 1 0 0
68 3 8.672403330718163 0.049385902430124834 9.142718591491795 0 0 0
69 3 4.246797430052722 0.42481755288957357 8.799478596344853 0 0 0
70 3 6.450766462289221 8.930786751720023 8.712280277507753 0 0 0
71 3 0.876874365462684 6.093160494562726 4.695070168786526 0 0 0
72 3 8.647010648994891 6.822759759600392 3.1106858426421824 0 0 0

Velocities

1 0 0 0
2 0 0 0
3 0 0 0
4 0 0 0
5 0 0 0
6 0 0 0
7 0 0 0
8 0 0 0
9 0 0 0
10 0 0 0
11 0 0 0
12 0 0 0
13 0 0 0
14 0 0 0
15 0 0 0
16 0 0 0
17 0 0 0
18 0 0 0
19 0 0 0
20 0 0 0
21 0 0 0
22 0 0 0
23 0 0 0
24 0 0 0
25 0 0 0
26 0 0 0
27 0 0 0
28 0 0 0
29 0 0 0
30 0 0 0
31 0 0 0
32 0 0 0
33 0 0 0
34 0 0 0
35 0 0 0
36 0 0 0
37 0 0 0
38 0 0 0
39 0 0 0
40 0 0 0
41 0 0 0
42 0 0 0
43 0 0 0
44 0 0 0
45 0 0 0
46 0 0 0
47 0 0 0
48 0 0 0
49 0 0 0
50 0 0 0
51 0 0 0
52 0 0 0
53 0 0 0
54 0 0 0
55 0 0 0
56 0 0 0
57 0 0 0
58 0 0 0
59 0 0 0
60 0 0 0
61 0 0 0
62 0 0 0
63 0 0 0
64 0 0 0
65 0 0 0
66 0 0 0
67 0 0 0
68 0 0 0
69 0 0 0
70 0 0 0
71 0 0 0
72 0 0 0
