 POSCAR to lmp

88 atoms
3 atom types

0.000000  10.361874 xlo xhi
0.000000  10.361889 ylo yhi
0.000000  11.869399 zlo zhi

  0.000089   0.000216  -0.000030  xy xz yz

Atoms

 1 1    7.281084   4.738560   5.159370
 2 1    2.198672   4.739018   5.159509
 3 1    4.740130   7.378486   4.925817
 4 1    4.739646   2.099109   4.925795
 5 1    7.280169   4.739761  -0.775256
 6 1    2.197917   4.739910  -0.775174
 7 1    4.739163   2.100082  10.860554
 8 1    4.739374   7.379512  10.860475
 9 1    2.099526   9.920717  -0.773383
 10 1    7.378683   9.920824  -0.773489
 11 1    9.920243   2.198519  10.861442
 12 1    9.920206   7.281106  10.861413
 13 1    2.100375   9.919481   5.161072
 14 1    7.379528   9.919992   5.160928
 15 1    9.920614   7.280106   4.926529
 16 1    9.921092   2.197480   4.926518
 17 2    4.739288   9.920749   9.144884
 18 2    9.920263   4.739795   9.144109
 19 2    4.739893   9.919732   3.210010
 20 2    9.920906   4.738792   3.209259
 21 2    9.920862   9.919740   6.877494
 22 2    9.920027   9.920749   0.943050
 23 2    4.739081   4.739851   0.941194
 24 2    4.739927   4.738781   6.876007
 25 3    9.920026   1.137829   0.736687
 26 3    9.920259   3.124040   8.950643
 27 3    8.534114   0.922261  10.348201
 28 3    0.944038   0.921838  10.348108
 29 3    8.556729   3.354228  -0.260807
 30 3    0.921559   3.354088  -0.260865
 31 3    6.354588   4.739825   1.135363
 32 3    8.341119   4.739804   9.349641
 33 3    6.125077   6.102927  10.346309
 34 3    6.125383   3.376157  10.346548
 35 3    8.556498   6.125612  -0.260988
 36 3    3.124477   4.739075   7.070226
 37 3    4.740190   6.317789   6.669782
 38 3    4.739622   3.159776   6.669749
 39 3    6.355381   4.738492   7.070117
 40 3    1.138130   4.739096   3.415093
 41 3    3.353833   6.102459   4.411924
 42 3    3.354004   3.375675   4.411791
 43 3    0.922669   3.352876   5.673751
 44 3    0.921881   6.124312   5.673896
 45 3    3.123576   4.739899   1.135434
 46 3    1.137524   4.739803   9.349732
 47 3    3.353151   6.103424  10.346569
 48 3    3.353417   3.376626  10.346452
 49 3    0.921360   6.125458  -0.260761
 50 3    4.739088   6.318834   0.734917
 51 3    4.739386   8.305363   8.949954
 52 3    6.102647   8.534300  -0.260692
 53 3    3.376239   8.534867  -0.260437
 54 3    8.304375   9.920860   1.137176
 55 3    6.318131   9.920859   9.351872
 56 3    8.534584   8.557811  10.348011
 57 3    6.101892   0.944771  -0.260455
 58 3    1.173802   9.920643   1.137238
 59 3    9.919909   8.341782   0.736667
 60 3    9.920259   6.355548   8.950615
 61 3    0.944467   8.557372  10.348216
 62 3    1.174590   9.919516   7.071694
 63 3    9.920631   8.340749   6.671105
 64 3    9.920981   1.136841   6.671115
 65 3    8.305255   9.919974   7.071601
 66 3    4.739600   1.173266   3.015249
 67 3    6.125900   3.375166   4.411774
 68 3    6.102938   0.943999   5.674048
 69 3    3.376482   0.943929   5.674055
 70 3    4.739032   3.160855   0.734966
 71 3    4.739065   1.174250   8.950011
 72 3    3.160462   9.920650   9.351919
 73 3    9.920600   6.354465   3.015714
 74 3    0.945017   8.556212   4.413282
 75 3    8.535087   8.556869   4.413048
 76 3    8.557064   6.124722   5.673618
 77 3    8.341793   4.738504   3.414965
 78 3    9.921215   3.123121   3.015710
 79 3    3.161006   9.919559   3.416921
 80 3    0.944779   0.920732   4.413132
 81 3    3.376919   8.533633   5.674185
 82 3    4.740055   8.304308   3.015271
 83 3    6.125730   6.101894   4.411690
 84 3    6.103363   8.533625   5.673969
 85 3    3.375512   0.945294  -0.260565
 86 3    8.557847   3.353238   5.673761
 87 3    6.318801   9.919921   3.416850
 88 3    8.534869   0.921347   4.413185
