LAMMPS data file via write_data, version 7 Feb 2024, timestep = 1941, units = metal

88 atoms
3 atom types

-0.2051954423758881 10.161740442375994 xlo xhi
-0.2074001104371654 10.66101511043733 ylo yhi
0.05758691914411019 10.471000080855921 zlo zhi
-0.3101578579605128 0.34474469330831253 -0.16259862985652865 xy xz yz

Masses

1 1
2 1
3 1

Atoms # atomic

1 1 2.5076417501087573 7.480431433775972 5.29089700321926 0 0 0
2 1 7.53999097449761 2.584179762323299 4.859230192281736 0 0 0
3 1 3.2622151025440345 2.707206415684162 0.2940107123599219 0 0 1
4 1 7.720459148425094 7.47296278446867 10.079572404516416 0 0 0
5 1 7.531966499541252 7.529292605995683 5.352511713012485 0 0 0
6 1 2.8876252782954706 2.4537531865176496 5.5216873051507465 0 0 0
7 1 7.081229127981525 2.617057250790678 10.1044694090756 0 0 -1
8 1 2.3763573760770016 7.363409862135064 0.37730569367642713 0 0 0
9 1 2.385464984980724 4.967378464083472 7.864282162321797 0 0 0
10 1 8.771599381058435 4.796690757499291 7.5596917850461285 0 0 0
11 1 4.686895478781428 1.0943416864759388 2.6750555177694504 0 0 0
12 1 5.176414025804858 8.011232301553486 2.498199060813557 0 0 0
13 1 7.748512295690555 5.403351647311567 2.4679878280714673 0 0 0
14 1 1.3288652006016568 4.744372817749036 2.941926221931153 0 0 0
15 1 5.805134246501728 1.006101622560641 7.661249579283696 0 0 0
16 1 4.7138002875266265 7.894436297170184 7.976822986043886 0 0 0
17 2 2.165274298188898 -0.2513174031962898 4.449066587264173 0 0 0
18 2 8.321491161213995 -0.22422507388780408 5.728057828849137 0 0 0
19 2 0.12627087015493846 1.9363243668377763 10.267127801953084 0 0 0
20 2 -0.029347646383496906 8.909904896806125 10.248418393688706 1 0 -1
21 2 8.896954808053753 9.035422904190005 7.725535332400865 0 0 0
22 2 1.8741211640971633 0.9866237426602108 8.24900083229356 0 0 0
23 2 0.9722603634087238 9.42607315806912 2.0427042483128823 0 0 0
24 2 8.443597553514397 1.061669905909008 2.007187225002397 0 0 0
25 3 0.4389032139841869 0.9574576620788557 9.051565237920776 0 0 0
26 3 1.9847235686792848 -0.28927865283425364 7.49706545344746 0 0 0
27 3 2.9337123171044444 1.0646888481797738 9.370963149853836 0 0 0
28 3 1.742074404493078 2.308882301675855 7.437843929140643 0 0 0
29 3 0.6713795316953041 7.608534405330918 10.420792342343832 0 0 0
30 3 2.374621371163857 8.944591097821359 1.7391254079910052 0 0 0
31 3 3.376574631375941 8.376790027617362 9.380829196633393 0 0 0
32 3 4.106767718060841 7.0982744495275565 1.1238412492719416 0 0 0
33 3 2.1402272710255255 5.9731618937223505 9.42553226938779 0 0 0
34 3 1.5851429564083082 6.216659231928411 1.6551527319427395 0 0 0
35 3 7.410098811026614 1.183319837802365 8.732153873695443 0 0 0
36 3 5.23419847574785 2.204160682305998 9.240341494115787 0 0 0
37 3 6.431977965949194 2.47916376077201 6.390995071438013 0 0 0
38 3 6.852759552468587 -0.12089314635195379 6.115362279928642 0 0 0
39 3 4.125080334320583 1.3980016924124987 6.589305717794037 0 0 0
40 3 4.997235449102664 10.169083523641362 8.228973349957053 0 0 0
41 3 1.4454828624390386 -0.18224892183067054 2.99683355681589 0 1 0
42 3 1.4532595129499193 9.214189539532219 4.975515821618348 0 0 0
43 3 1.5309276910435934 0.930908441842688 5.166905541434488 0 0 0
44 3 8.886918302654603 1.0751672600444804 5.177507584621552 0 0 0
45 3 8.658586988610189 2.2543426810381155 2.942266782197744 0 0 0
46 3 8.843698488617802 3.503750541561474 6.1288436218255 0 0 0
47 3 7.201026126904746 4.243946154928589 4.026526356949358 0 0 0
48 3 6.280392937070205 1.495655083408275 3.7593152446798626 0 0 0
49 3 0.5412553146030954 10.099942518423184 0.6249327856687729 0 0 0
50 3 -0.001549328719110156 8.508090763599059 2.681215773458797 0 0 0
51 3 -0.16473756669873507 9.166002524425032 8.68696991145657 1 0 0
52 3 8.618437265930963 9.178641401538748 0.39474783611812253 0 0 0
53 3 8.85307387782673 10.484039912680815 7.096690950300509 0 0 0
54 3 8.046170917210722 10.581445783500708 2.6303435782308604 0 -1 0
55 3 8.394416618619454 9.418714623121478 4.927264929940846 0 0 0
56 3 5.997956104305144 7.1843326465266415 9.266207169608393 0 0 0
57 3 4.127177937206137 6.122133353964441 7.717156115457645 0 0 0
58 3 3.582455711621879 8.519947478291016 6.481665061582586 0 0 0
59 3 6.168423971211807 7.970135159494642 6.647697461105014 0 0 0
60 3 1.4702594816496735 3.477929029147415 4.3484808430743245 0 0 0
61 3 1.4873920269072503 6.261082914929307 4.179114625112384 0 0 0
62 3 3.8988626872421426 2.476005070835868 3.9274041873086016 0 0 0
63 3 2.7027221057667714 3.8797736782141143 1.7906993103288364 0 0 0
64 3 9.81295861360402 4.724611233410512 2.6580299389093036 -1 0 0
65 3 8.474077246834197 6.646396989162095 3.9733903144232223 0 0 0
66 3 5.995721671192271 6.1697333345684315 2.617474859276154 0 0 0
67 3 8.27210561595749 6.594945223233523 1.077629222712723 0 0 0
68 3 7.2718667779803665 4.078513173621974 1.1083572112345499 0 0 0
69 3 3.133711658862858 1.1689543320194165 1.5273410030685275 0 0 0
70 3 5.135318049078098 2.565892981145377 1.217445912580686 0 0 0
71 3 3.648152042839837 -0.08974553527934606 4.240395693787469 0 0 0
72 3 4.850704134497397 10.168473687453234 2.285685507660208 0 0 0
73 3 3.273794362574894 4.158061676593105 6.276825026459626 0 0 0
74 3 1.0317871793234537 2.812175401417003 0.263473889357334 0 0 0
75 3 3.234430097505263 3.7679869492955316 9.2232742269538 0 0 0
76 3 9.76816755403755 1.096176726380958 1.0381731369758471 0 0 0
77 3 7.315659287796526 1.280651669313324 0.9643360003307387 0 0 0
78 3 7.688324680032803 8.974034626515152 8.611896614859845 0 0 0
79 3 6.372899671138266 8.501276272760753 1.0897934738244976 0 0 0
80 3 8.67013297264386 6.313725079323719 8.871724726667955 0 0 0
81 3 6.319852999071599 8.309976416680161 4.024366872778699 0 0 0
82 3 3.744304972478331 7.734072494032854 3.8283236377564713 0 0 0
83 3 1.7703091243067857 6.5094156381797905 6.740586474081982 0 0 0
84 3 9.161146338153356 7.93882533059148 6.729951416889342 0 0 0
85 3 7.655987267428315 5.840227327070891 6.397691219648669 0 0 0
86 3 9.27146384557082 2.7149857071634167 9.895397046635928 0 0 0
87 3 7.4234436560792645 3.9141896894190515 8.649162411163543 0 0 0
88 3 0.3093083570287937 4.639507402105769 7.839948919569752 1 0 0

Velocities

1 0 0 0
2 0 0 0
3 0 0 0
4 0 0 0
5 0 0 0
6 0 0 0
7 0 0 0
8 0 0 0
9 0 0 0
10 0 0 0
11 0 0 0
12 0 0 0
13 0 0 0
14 0 0 0
15 0 0 0
16 0 0 0
17 0 0 0
18 0 0 0
19 0 0 0
20 0 0 0
21 0 0 0
22 0 0 0
23 0 0 0
24 0 0 0
25 0 0 0
26 0 0 0
27 0 0 0
28 0 0 0
29 0 0 0
30 0 0 0
31 0 0 0
32 0 0 0
33 0 0 0
34 0 0 0
35 0 0 0
36 0 0 0
37 0 0 0
38 0 0 0
39 0 0 0
40 0 0 0
41 0 0 0
42 0 0 0
43 0 0 0
44 0 0 0
45 0 0 0
46 0 0 0
47 0 0 0
48 0 0 0
49 0 0 0
50 0 0 0
51 0 0 0
52 0 0 0
53 0 0 0
54 0 0 0
55 0 0 0
56 0 0 0
57 0 0 0
58 0 0 0
59 0 0 0
60 0 0 0
61 0 0 0
62 0 0 0
63 0 0 0
64 0 0 0
65 0 0 0
66 0 0 0
67 0 0 0
68 0 0 0
69 0 0 0
70 0 0 0
71 0 0 0
72 0 0 0
73 0 0 0
74 0 0 0
75 0 0 0
76 0 0 0
77 0 0 0
78 0 0 0
79 0 0 0
80 0 0 0
81 0 0 0
82 0 0 0
83 0 0 0
84 0 0 0
85 0 0 0
86 0 0 0
87 0 0 0
88 0 0 0
