 POSCAR to lmp

88 atoms
3 atom types

0.000000   9.956545 xlo xhi
0.000000  10.453615 ylo yhi
0.000000  10.528587 zlo zhi

 -0.009255  -0.008914   0.058889  xy xz yz

Atoms

 1 1    2.554565   7.356503   4.791719
 2 1    7.481956   2.794650   4.814378
 3 1    3.049438   2.667971  10.112122
 4 1    7.111250   7.424740  10.037549
 5 1    7.516632   7.391503   5.505764
 6 1    2.621945   2.779825   5.500489
 7 1    7.014393   2.648302   0.240146
 8 1    2.966261   7.346884   0.284890
 9 1    1.897042   5.523967   7.807926
 10 1    8.081972   4.576184   7.883645
 11 1    4.515461   1.589546   2.630807
 12 1    5.559990   8.299917   2.524093
 13 1    8.214550   5.512890   2.515807
 14 1    2.012581   4.509205   2.432480
 15 1    5.575089   1.653404   7.729450
 16 1    4.505147   8.363546   7.753106
 17 2    1.446724  -0.144064   5.176692
 18 2    8.670478  -0.110057   5.117211
 19 2    0.086167   1.583378  10.377139
 20 2    9.992786   8.871627  -0.081928
 21 2    8.601224   9.146814   7.847117
 22 2    1.553666   1.045128   7.904603
 23 2    1.524814   9.142634   2.440473
 24 2    8.708684   1.160188   2.426188
 25 3    0.410528   1.127256   8.937276
 26 3    1.483252   0.072479   6.708460
 27 3    2.745579   1.204418   8.872814
 28 3    1.612846   2.365525   7.106488
 29 3    1.315625   8.154512  10.103578
 30 3    2.719745   8.829587   1.513510
 31 3    3.627144   8.627329   9.462936
 32 3    4.516889   7.089901   1.420692
 33 3    2.187060   6.056370   9.651308
 34 3    1.971848   6.216517   1.508842
 35 3    6.580353   1.427398   9.373623
 36 3    4.608450   2.794971   8.966832
 37 3    6.649507   3.273096   7.707569
 38 3    6.333640   1.711121   5.944576
 39 3    4.097355   2.364425   6.690721
 40 3    5.035526  10.235277   7.741495
 41 3    1.525619  10.107667   3.644829
 42 3    1.416079   8.787133   5.444918
 43 3    1.422701   1.377014   4.900188
 44 3    8.686780   1.403784   5.431477
 45 3    8.594892   2.455480   3.259379
 46 3    8.494141   3.707516   6.196671
 47 3    7.292505   4.483298   3.879290
 48 3    6.039191   2.255665   3.633125
 49 3    0.432532   9.267500   1.358153
 50 3    1.480177   7.823688   3.243078
 51 3    9.649583   9.258017   8.973780
 52 3    8.612919   8.306584   0.314438
 53 3    8.593095  10.117257   6.646889
 54 3    8.692069   0.147539   3.591082
 55 3    8.634836   8.825617   4.825789
 56 3    5.527637   7.214388   8.937372
 57 3    3.385235   6.774290   7.746530
 58 3    3.733854   8.347241   5.973246
 59 3    6.038562   7.886749   6.662524
 60 3    1.578173   3.681410   4.134365
 61 3    2.754117   5.738145   3.740235
 62 3    3.439583   3.208360   2.661216
 63 3    2.813347   4.183003   0.691877
 64 3    0.117874   4.943429   2.513624
 65 3    8.577184   6.501149   4.146012
 66 3    6.691188   6.719773   2.563253
 67 3    7.985225   6.074378   0.671821
 68 3    7.629318   3.926174   1.563097
 69 3    3.453348   1.368089   1.021701
 70 3    5.451926   2.742528   1.382179
 71 3    3.795611   1.662556   4.430851
 72 3    5.033139  10.171555   2.577745
 73 3    2.790051   4.462453   6.450299
 74 3    1.167766   2.620692   0.015108
 75 3    2.402494   3.922487   8.782045
 76 3    9.799261   1.186842   1.334574
 77 3    7.447456   1.275969   1.543138
 78 3    7.377315   8.844059   8.739209
 79 3    6.256907   8.595505   0.737416
 80 3    8.076901   6.291732   8.792876
 81 3    6.335210   8.351941   4.301797
 82 3    4.038893   7.851125   3.643194
 83 3    1.502005   6.478051   6.165173
 84 3    8.638781   7.838672   7.026348
 85 3    7.320884   5.773437   6.558154
 86 3    8.763603   2.370317  10.027357
 87 3    7.368694   4.260133   9.663349
 88 3    9.975865   5.016790   7.827142
