 POSCAR to lmp

88 atoms
3 atom types

0.000000  13.663473 xlo xhi
0.000000   8.855269 ylo yhi
0.000000   9.332279 zlo zhi

 -0.428265   0.124798  -0.604129  xy xz yz

Atoms

 1 1    7.351914   0.622951   1.750993
 2 1   11.724155   4.229197   1.435126
 3 1   12.770966   0.366498   3.122060
 4 1    6.070429   4.082779   2.458834
 5 1    5.307759  -0.432758   7.976325
 6 1    0.467544   4.039129   7.779806
 7 1   -0.372640   7.458078   6.386121
 8 1    6.655933   4.196405   5.953641
 9 1   12.582540   1.100915   8.965376
 10 1    8.197402   3.077752   9.195060
 11 1    6.377825   0.531731   5.061508
 12 1   11.963755   3.369177   4.959666
 13 1    0.780315   7.739890   0.366439
 14 1    5.394410   5.692253   9.075361
 15 1    4.116130   6.298164   4.881226
 16 1    0.826591   5.503722   3.484632
 17 2    7.349170   6.833272   3.907514
 18 2   11.232945   6.290385   3.663621
 19 2   11.485104   6.128614   8.809603
 20 2    8.515921   7.064420   0.162474
 21 2    3.161385   0.328095   5.695302
 22 2    1.292053   2.334542   4.307544
 23 2    1.961904   2.187360   0.068214
 24 2    4.866050   2.472903   8.868404
 25 3    0.031305   2.508635   5.182576
 26 3   11.138182   5.108519   4.657247
 27 3   -0.289187   4.693509   4.841634
 28 3   12.480431   3.948320   6.745579
 29 3   11.335385   3.346436   3.119237
 30 3   11.789763   1.537384   4.324713
 31 3   11.048504   7.810206   3.454692
 32 3   -0.005868   8.237824   2.077165
 33 3   12.147719   1.230681   1.496870
 34 3   13.267867  -0.221656   4.906753
 35 3    0.629071   1.572415   3.140461
 36 3    7.135353   6.559883   9.149350
 37 3    4.615212   3.973777   8.604056
 38 3    6.665641   4.994135   0.034555
 39 3    5.077090   5.436299   1.474721
 40 3    6.273985   5.480316   7.356782
 41 3    3.902573   7.098875   9.175397
 42 3    8.661067   5.521185   0.142246
 43 3   10.077564   6.738654   8.994746
 44 3    8.322081   8.370776   0.970738
 45 3    6.401755   2.345570   9.011269
 46 3    7.868024   3.614402   7.357003
 47 3    7.879675   3.863733   1.785743
 48 3    8.225968   1.868132   0.543254
 49 3    4.948529   1.474612   7.695571
 50 3    6.856311   0.024459   6.901598
 51 3    4.659680   7.083680   6.571577
 52 3    6.214122   0.441173   0.183943
 53 3    3.450401  -0.117795   7.146285
 54 3    3.457241   2.554937   0.220568
 55 3    0.471220   2.204748   0.484244
 56 3    2.020148   0.656830   0.305523
 57 3    1.796646   2.837569   8.538323
 58 3    4.501411   0.980876   5.289739
 59 3    2.865091   7.772371   5.083471
 60 3    2.121598   1.276207   5.063814
 61 3    1.622186   3.758186   3.808745
 62 3    6.956011   3.625858   4.122262
 63 3    7.256382   5.824031   5.077879
 64 3    4.794345   4.742245   5.829279
 65 3    6.464692   2.263712   5.934072
 66 3   11.062946   5.293315  -0.049719
 67 3   -0.258256   4.307457   2.406531
 68 3   -0.459996   4.418769   0.195194
 69 3   11.043972   2.911464   0.184520
 70 3   10.730008   5.609570   2.371926
 71 3   12.739343   6.329033   3.323089
 72 3   12.823943   0.036763   7.350175
 73 3    0.926371   7.630360   7.819334
 74 3    0.697610   6.856069   4.876187
 75 3   11.886144   6.553882   7.380306
 76 3    0.373190   5.714182   6.806658
 77 3    7.323538   8.021362   4.898008
 78 3    5.003209   7.902414   4.240128
 79 3    7.503183   1.165509   3.611488
 80 3   12.716935   6.854570   0.209709
 81 3   -0.854784   8.912227   0.066379
 82 3    1.296781   5.411656   8.885787
 83 3   -0.246409   2.239255   7.635312
 84 3    7.042723   5.705343   2.896782
 85 3    4.822381   4.974279   3.647483
 86 3    6.236675   2.196076   2.013354
 87 3    2.703959   5.975573   3.588083
 88 3    6.993382   7.821825   2.769366
