LAMMPS data file via write_data, version 7 Feb 2024, timestep = 5244, units = metal

88 atoms
88 atom types

0.02644566002422799 9.523888339975795 xlo xhi
0.016796927969131542 9.533537072030864 ylo yhi
-0.02718026845870207 11.677542268458646 zlo zhi
-0.4754073150449333 -1.4162267033096991 -0.0020677710929672345 xy xz yz

Masses

1 1
2 1
3 1
4 1
5 1
6 1
7 1
8 1
9 1
10 1
11 1
12 1
13 1
14 1
15 1
16 1
17 1
18 1
19 1
20 1
21 1
22 1
23 1
24 1
25 1
26 1
27 1
28 1
29 1
30 1
31 1
32 1
33 1
34 1
35 1
36 1
37 1
38 1
39 1
40 1
41 1
42 1
43 1
44 1
45 1
46 1
47 1
48 1
49 1
50 1
51 1
52 1
53 1
54 1
55 1
56 1
57 1
58 1
59 1
60 1
61 1
62 1
63 1
64 1
65 1
66 1
67 1
68 1
69 1
70 1
71 1
72 1
73 1
74 1
75 1
76 1
77 1
78 1
79 1
80 1
81 1
82 1
83 1
84 1
85 1
86 1
87 1
88 1

Atoms # atomic

1 1 8.616368335100415 4.508683058083209 2.6485508521068803 -1 0 0
2 2 3.7093981981169755 9.367394506290974 9.673273686728708 0 -1 0
3 3 8.294993895432984 0.048740594232823224 5.770972133155233 -1 0 0
4 4 3.1390649364465575 4.6606680989938765 11.261102789762878 0 0 -1
5 5 -1.037605982964953 0.04619482158055847 9.617279527281871 0 0 0
6 6 -0.28537785539475513 9.086954921613357 2.4990290002578845 0 -1 0
7 7 4.088456862967551 4.9502211101841676 3.3023484820192244 0 0 0
8 8 3.295489478358891 5.273637077603137 7.567961227871324 0 0 0
9 9 1.4823661091132705 1.523017621665822 11.6187714290138 0 0 -1
10 10 7.182231360152844 7.2840716929678395 0.36600441959666397 0 0 0
11 11 1.829742038258605 7.327799676223397 0.10348994167022409 0 0 0
12 12 6.100790039496341 2.3239993933471372 11.494188040654912 0 0 -1
13 13 5.327435156946726 7.260648354757952 5.929426739288193 0 0 0
14 14 0.9208132656600151 3.0453123153667656 5.702782438266908 0 0 0
15 15 6.003208350795886 3.777905828255932 5.336858448726185 0 0 0
16 16 0.3766562956791968 6.441196978103725 5.539736001694258 0 0 0
17 17 2.363286991512753 7.570489317505292 3.2175724017999183 0 0 0
18 18 7.048084387706095 1.6690346378159209 3.020276550007411 0 0 0
19 19 5.86824880747031 6.810622292728401 8.912085659653933 0 0 0
20 20 1.5407323090080682 1.5978539222661472 8.507184844764751 0 0 0
21 21 2.1629507517108153 2.2080703356047127 2.8405288060678258 0 0 0
22 22 6.3703130385605435 7.349095965948355 3.13150793400586 0 0 0
23 23 6.126585759001546 2.188431448754925 8.236165999911039 0 0 0
24 24 1.0401630535360695 7.473418548873771 8.768271849655273 0 0 0
25 25 4.925186300588736 8.030570194741347 8.970464054003054 0 -1 0
26 26 5.298384628262585 0.9124456011222069 8.488625612023416 0 0 0
27 27 2.4355214690950597 7.982295857206459 9.189838097213455 0 -1 0
28 28 2.852167965763543 0.7899639229603784 8.619799425751097 0 0 0
29 29 4.55107526887998 1.4041641785547543 10.777455736470909 0 0 0
30 30 4.652582895608702 8.610885777978975 11.19347843376581 0 -1 0
31 31 5.441727151998974 8.03520342184989 4.152927626546539 0 0 0
32 32 5.9100243610845276 7.811477185338652 1.7336515295936339 0 0 0
33 33 5.759028668097837 5.930954165017732 3.1282919308525354 0 0 0
34 34 7.787590274657815 7.960180661050526 3.194542355890739 0 0 0
35 35 2.031073582891414 2.1606648408858216 4.378740012917287 0 0 0
36 36 3.0896513448603193 1.4772760488766172 1.8444884510616573 0 0 0
37 37 2.795061995645881 3.615343783005071 2.72805555985539 0 0 0
38 38 0.9033687129434345 1.3802296985722113 2.4884836139083006 0 0 0
39 39 6.442751182194628 7.122169014870448 7.514386736422153 0 0 0
40 40 3.745201497500784 7.087932388915057 7.0386163939271205 0 0 0
41 41 4.19807197600416 6.076006448629107 4.881428192590348 0 0 0
42 42 5.950156537208448 9.086254967032314 6.1532227847073715 0 0 0
43 43 6.37712416935408 5.63776551201211 5.754264559975127 0 0 0
44 44 1.7051891336805611 7.514507138107494 4.615504578991591 0 0 0
45 45 2.8233146081159672 7.648725596687072 1.7428909939943769 0 0 0
46 46 2.4822574897398386 6.03013174431748 3.1705613398882777 0 0 0
47 47 1.57229394693948 8.883644340621629 3.028807033049536 0 0 0
48 48 4.30969027942911 2.8620270394742597 0.17331047033610472 0 0 0
49 49 3.1865951410069653 5.934633222811341 0.0895266394199982 0 0 0
50 50 4.205167129091083 6.225032533490821 11.531522317660128 0 0 -1
51 51 4.900723832383791 3.8447961863106754 11.347086879401525 0 0 -1
52 52 2.740968793654534 4.796800375027382 9.366364578463267 0 0 -1
53 53 4.71279230517204 4.673214918358309 1.4885993128380934 0 0 0
54 54 8.263300045939305 2.6214944777012987 2.9712185893644167 -1 0 0
55 55 8.100377779757332 5.927996573221184 1.4190867804505831 -1 0 0
56 56 7.403199945000714 4.443503914113018 4.163299156141019 -1 0 0
57 57 -0.2990160976309557 5.990761904435275 3.771404412923955 0 0 0
58 58 0.2956245533209006 3.8314086385643322 4.040749470580608 0 0 0
59 59 8.410630932400364 3.6216462315078903 0.9279589413398373 -1 0 0
60 60 6.069327256329308 2.5262326779456594 3.8516330810226074 0 0 0
61 61 6.479094191510836 2.5790003428235986 6.787434931950847 0 0 0
62 62 4.7569587025740425 4.305962018865907 6.733118188746746 0 0 0
63 63 4.182202401378962 3.596961183191252 4.687261159765035 0 0 0
64 64 -1.0532272894521473 7.737068754912619 5.747497022555941 0 -1 0
65 65 -0.6477970057577481 1.9012081419386893 5.762807635842743 0 0 0
66 66 0.13083231122504704 0.04212807420712905 4.382392118280914 0 0 0
67 67 7.668253058398066 9.394524779118985 7.702254157831559 -1 -1 0
68 68 7.365877722153543 0.6970831462528574 4.177814341003173 -1 0 0
69 69 6.39475752229174 6.64164596852535 10.35135985568457 0 0 -1
70 70 7.992788059838868 8.932880259057812 0.9951999918595058 0 0 0
71 71 2.125967324366877 5.8282770571166775 6.119276777617372 0 0 0
72 72 2.4105974883760486 3.7656282124631866 6.721252083909401 0 0 0
73 73 4.846674257316337 5.6796145986478965 8.66670101689756 0 0 0
74 74 0.5558913357856916 6.661135883124943 9.987918040284404 0 0 -1
75 75 -1.078383929956083 8.172116476641154 10.892884648333512 0 0 -1
76 76 0.4221238139732126 7.643704403410799 1.4057530512151228 0 0 0
77 77 1.1406046164993309 9.105098689237758 11.53018610615884 0 0 -1
78 78 6.849663051835292 1.6585143455275655 1.4880344585797984 0 0 0
79 79 6.266879624667994 2.836783074424666 9.628130214443761 0 0 -1
80 80 6.980769369688825 0.7943490726905386 10.676121725340998 0 0 -1
81 81 0.5477887771196422 6.908786687931244 7.418079631970303 0 0 0
82 82 0.028411649363073145 4.674713138601425 6.266142115856106 0 0 0
83 83 1.7557328917334907 2.3039718299719563 9.862745687374224 0 0 -1
84 84 -0.3164237813820976 0.9860491238804233 11.141387324152696 0 0 -1
85 85 1.8784236874949172 3.1857692193661777 0.01632899441758122 0 0 0
86 86 0.01704523672455679 8.614270649506695 8.942035577895956 0 0 0
87 87 1.424198417011073 1.6618209963252868 6.968956207551285 0 0 0
88 88 0.032849978545951404 1.4245042312426535 8.798862780908365 0 0 0

Velocities

1 0 0 0
2 0 0 0
3 0 0 0
4 0 0 0
5 0 0 0
6 0 0 0
7 0 0 0
8 0 0 0
9 0 0 0
10 0 0 0
11 0 0 0
12 0 0 0
13 0 0 0
14 0 0 0
15 0 0 0
16 0 0 0
17 0 0 0
18 0 0 0
19 0 0 0
20 0 0 0
21 0 0 0
22 0 0 0
23 0 0 0
24 0 0 0
25 0 0 0
26 0 0 0
27 0 0 0
28 0 0 0
29 0 0 0
30 0 0 0
31 0 0 0
32 0 0 0
33 0 0 0
34 0 0 0
35 0 0 0
36 0 0 0
37 0 0 0
38 0 0 0
39 0 0 0
40 0 0 0
41 0 0 0
42 0 0 0
43 0 0 0
44 0 0 0
45 0 0 0
46 0 0 0
47 0 0 0
48 0 0 0
49 0 0 0
50 0 0 0
51 0 0 0
52 0 0 0
53 0 0 0
54 0 0 0
55 0 0 0
56 0 0 0
57 0 0 0
58 0 0 0
59 0 0 0
60 0 0 0
61 0 0 0
62 0 0 0
63 0 0 0
64 0 0 0
65 0 0 0
66 0 0 0
67 0 0 0
68 0 0 0
69 0 0 0
70 0 0 0
71 0 0 0
72 0 0 0
73 0 0 0
74 0 0 0
75 0 0 0
76 0 0 0
77 0 0 0
78 0 0 0
79 0 0 0
80 0 0 0
81 0 0 0
82 0 0 0
83 0 0 0
84 0 0 0
85 0 0 0
86 0 0 0
87 0 0 0
88 0 0 0
