LAMMPS data file via write_data, version 7 Feb 2024, timestep = 793, units = metal

88 atoms
3 atom types

-0.2935883940785199 13.957061394078513 xlo xhi
-0.10303033114858187 8.958299331148575 ylo yhi
-0.08904549164989678 9.421324491649955 zlo zhi
-0.19853048987354782 -0.5051887418241523 -1.6567882685142243 xy xz yz

Masses

1 1
2 1
3 1

Atoms # atomic

1 1 6.435886146003836 0.9425238707175805 1.3513566110983555 0 0 0
2 1 12.368140678314322 3.9367034289190905 1.304420870294252 0 0 0
3 1 12.392729073352665 -0.49350523435090216 3.427307371049118 0 0 0
4 1 6.7389644234863395 4.381718073550743 2.4487449696288084 0 0 0
5 1 4.361147537039618 -1.111027305998931 7.381941612002586 0 0 0
6 1 -0.5550590793779191 1.9273970721520317 7.646252041627836 0 0 0
7 1 12.892968329963576 7.052765996546834 6.840220064891314 -1 0 0
8 1 6.054942715002234 3.948955986215778 5.8634147210051495 0 0 0
9 1 12.539548530526105 0.895986578382287 -0.07740627136302625 0 0 1
10 1 7.741023253205437 1.6174166398985867 9.370769920859505 0 0 0
11 1 6.3441915768444535 0.3356058361922331 5.043173226147297 0 0 0
12 1 11.825452642168367 2.5602422023400004 4.6618531715526155 0 0 0
13 1 0.42295121338779856 8.452945501157163 0.7812361755762002 0 0 0
14 1 5.2783735601037165 6.703842881883012 -0.06544028105338252 0 0 1
15 1 3.8795442630485257 5.772809968180014 4.377551334431411 0 0 0
16 1 0.19978170745839322 4.929697574063146 4.234482554270431 0 0 0
17 2 7.170444813458646 6.832455649766562 4.51265794982688 0 0 0
18 2 11.249540503834218 5.7688332806297415 3.608692554400894 0 0 0
19 2 11.34393718042536 4.990648694594094 8.593408549599307 0 0 0
20 2 8.44824201419815 5.13026948574876 9.181891430454622 0 0 -1
21 2 3.123873520456377 -0.3416479186881558 4.661991237748843 0 0 0
22 2 0.7763491306133135 1.5846414213051228 4.59056511515256 0 0 0
23 2 2.380391682860583 2.160508727519113 0.45032663566278164 0 0 0
24 2 4.24193834412205 1.7393710894495895 8.629741628688974 0 0 0
25 3 0.509042345042258 1.1644717863829692 6.035413217360578 0 0 0
26 3 10.810593688174697 4.70281277146876 4.627876965362633 0 0 0
27 3 13.248076431700865 3.73473996191416 5.033711091011789 -1 0 0
28 3 12.037479723342386 2.2752470612918163 6.591631464747505 0 0 0
29 3 11.75444957822365 2.8732520102920924 2.806275342660507 0 0 0
30 3 11.181716517719197 0.7868177372467754 4.3677463819380655 0 0 0
31 3 10.56676263618284 7.178472349763433 3.7033108118584956 0 0 0
32 3 -0.35751824815137745 8.169633318901978 2.540622857908099 0 0 0
33 3 11.738614045909 0.13852109615222327 1.7427435128655928 0 0 0
34 3 12.957551014242426 -0.8620996703251401 5.318144230929023 0 0 0
35 3 -0.5308832228425255 1.3202718893523104 3.7907788925134502 0 0 0
36 3 7.3647434831131875 6.017880193718121 8.610886208614032 0 0 0
37 3 3.690930206860524 3.1591874378389444 8.576891325355186 0 0 0
38 3 6.4479114105158155 5.500651608860894 0.8833916810503606 0 0 0
39 3 3.8604447438302048 6.5514312019472785 1.0380074823629384 0 0 0
40 3 5.648919521409067 4.386050949396531 7.608582392047342 0 0 0
41 3 3.7318267793973767 6.3186351507975225 8.371148611181342 0 0 0
42 3 8.193119376418611 3.6075752931394387 8.899958158161688 0 0 -1
43 3 9.820689609812522 5.383619703262993 8.307314676461655 0 0 0
44 3 9.321662959877962 7.095965829331867 1.0911124680564357 0 0 0
45 3 5.804840757771122 1.7612064982471025 8.821970541283031 0 0 0
46 3 8.527196853813805 1.0907866185839166 7.857845478642288 0 0 0
47 3 8.476883727621885 3.887496593568905 1.679694199106152 0 0 0
48 3 8.122003247317313 1.4600677129794313 0.6619169520383871 0 0 0
49 3 3.9479646972667957 0.9149732046029294 7.374852426864215 0 0 0
50 3 6.079551546166357 -0.605012141986843 6.693052372935402 0 0 0
51 3 4.286654871252985 6.511294099032835 6.014656600119434 0 0 0
52 3 5.081564175471874 -0.6902268395669532 9.141321453092255 0 0 -1
53 3 2.701672425276676 -0.8038821090421178 6.053345062201731 0 0 0
54 3 3.913006323681049 2.6713009299975083 0.26428137656471834 0 0 0
55 3 1.8735596945792186 2.8900981320754457 1.6461191977466638 0 0 0
56 3 2.395432957124068 0.6076497815788726 0.6622078694238956 0 0 0
57 3 1.227716085982451 0.881555180938142 8.616452815047854 0 0 0
58 3 4.353826214970081 0.5982998593411328 4.651463000925599 0 0 0
59 3 3.172370610026347 7.604210828503597 3.6533660969421056 0 0 0
60 3 1.9077420198482349 0.5453534715067191 4.079234703592722 0 0 0
61 3 1.3480272092270418 2.979542041688426 4.427567676924564 0 0 0
62 3 7.113205022608729 3.6905319619428445 4.208465046548986 0 0 0
63 3 6.935222266250632 5.827104996881653 5.664128565990296 0 0 0
64 3 4.314963007319003 3.9643756331375584 5.140401444178675 0 0 0
65 3 6.357408407627293 2.0133723195423405 5.996142538703129 0 0 0
66 3 11.212904331555574 3.598265140344461 9.200517119479914 0 0 -1
67 3 -0.34487805750457035 4.421133696119034 2.4540552854414446 0 0 0
68 3 13.809970081543232 3.887246413106533 -0.01694074911142984 -1 0 0
69 3 11.511725485215875 2.4964610525117177 0.2296443058891481 0 0 0
70 3 11.063164079465885 5.230489308556029 2.171051551303136 0 0 0
71 3 12.732967861765344 6.206395566400049 3.739510835096185 0 0 0
72 3 11.16821888251912 7.491291244690543 7.720152558817859 0 -1 0
73 3 -0.17915771740056685 7.013582444766241 8.302334402174614 0 0 0
74 3 0.02471315252765695 6.030631923404484 5.809560624503088 0 0 0
75 3 12.09397516714935 5.108514910080814 7.250012690911288 0 0 0
76 3 0.34541351391370695 3.4822768637484653 7.429385127526212 0 0 0
77 3 8.048565497152712 -0.9704917087741837 5.020503414686156 0 1 0
78 3 5.812881390226495 7.478684216865804 4.080293110553215 0 0 0
79 3 6.899528154354165 0.8607050400408054 3.2984042576064163 0 0 0
80 3 12.563775754781336 7.613634313504361 0.09085615248882183 0 0 0
81 3 -0.2570817714600194 1.1522279563620306 0.8596501535716488 0 1 0
82 3 1.170214268436393 6.800974211058246 0.6366702163368078 0 0 1
83 3 12.988595704130166 0.115660019585353 7.87701558409168 -1 0 0
84 3 7.82762928062025 6.127744302581577 3.3264479080070157 0 0 0
85 3 5.016579815159209 5.194008031121147 2.997654880969263 0 0 0
86 3 5.88011411446799 2.7496448710821593 1.912445562354925 0 0 0
87 3 2.0710877837808215 5.334861003426799 3.833277060416888 0 0 0
88 3 6.1598045411589535 8.12743601370951 1.1290042674712808 0 0 0

Velocities

1 0 0 0
2 0 0 0
3 0 0 0
4 0 0 0
5 0 0 0
6 0 0 0
7 0 0 0
8 0 0 0
9 0 0 0
10 0 0 0
11 0 0 0
12 0 0 0
13 0 0 0
14 0 0 0
15 0 0 0
16 0 0 0
17 0 0 0
18 0 0 0
19 0 0 0
20 0 0 0
21 0 0 0
22 0 0 0
23 0 0 0
24 0 0 0
25 0 0 0
26 0 0 0
27 0 0 0
28 0 0 0
29 0 0 0
30 0 0 0
31 0 0 0
32 0 0 0
33 0 0 0
34 0 0 0
35 0 0 0
36 0 0 0
37 0 0 0
38 0 0 0
39 0 0 0
40 0 0 0
41 0 0 0
42 0 0 0
43 0 0 0
44 0 0 0
45 0 0 0
46 0 0 0
47 0 0 0
48 0 0 0
49 0 0 0
50 0 0 0
51 0 0 0
52 0 0 0
53 0 0 0
54 0 0 0
55 0 0 0
56 0 0 0
57 0 0 0
58 0 0 0
59 0 0 0
60 0 0 0
61 0 0 0
62 0 0 0
63 0 0 0
64 0 0 0
65 0 0 0
66 0 0 0
67 0 0 0
68 0 0 0
69 0 0 0
70 0 0 0
71 0 0 0
72 0 0 0
73 0 0 0
74 0 0 0
75 0 0 0
76 0 0 0
77 0 0 0
78 0 0 0
79 0 0 0
80 0 0 0
81 0 0 0
82 0 0 0
83 0 0 0
84 0 0 0
85 0 0 0
86 0 0 0
87 0 0 0
88 0 0 0
