LAMMPS data file via write_data, version 7 Feb 2024, timestep = 633, units = metal

68 atoms
3 atom types

0.181100832589504 13.6103441674105 xlo xhi
-0.3301489905260085 6.638276990526034 ylo yhi
-0.15790071649509257 9.526787716495079 zlo zhi
0.3130124145004318 -0.3209022803568673 -0.1478463195148213 xy xz yz

Masses

1 1
2 1
3 1

Atoms # atomic

1 1 13.265362873305927 6.576227190005305 0.4887319270623223 0 0 0
2 1 7.744209621670624 3.607319752943604 0.020159544247014497 0 0 0
3 1 0.399785363906783 3.21391134565004 3.396213502570432 0 0 0
4 1 6.257757156657192 0.5871669832353255 3.5029489249904704 0 0 0
5 1 11.617580341713166 0.22045786229416156 7.223132947724631 0 0 0
6 1 8.958820959364296 3.0929538343751397 6.314122663291888 0 0 0
7 1 2.517789043262954 3.825698683607735 7.43094257374189 0 0 0
8 1 4.004828008792435 6.429922303267812 7.352924454904278 0 0 0
9 1 2.8240209311771514 6.346991200970842 2.579060492351101 0 0 0
10 1 4.388216117041468 3.8034061362063705 2.8425904926305763 0 0 0
11 1 10.565329516997295 3.1766821678903527 2.752250810284076 0 0 0
12 1 9.368376711678172 0.5762155708512704 1.8587342271159568 0 0 0
13 2 13.073870144170547 0.05605901525815762 3.8574782554439326 0 1 0
14 2 7.752280001819102 3.54441862178838 2.972000398377344 0 0 0
15 2 13.137547348087553 3.503040238677798 0.20216581818287263 0 0 0
16 2 6.408515101023623 -0.38426558007527434 9.523247951378982 0 1 -1
17 2 3.1535558857512718 1.730833536277303 4.790490405872725 0 0 0
18 2 10.07022384336473 5.240667012794099 9.125447366121604 0 0 0
19 2 9.39311396523152 0.025147577919424673 5.175062857534491 0 1 0
20 2 3.619322424374123 1.7130537867659392 0.17693494117508918 0 0 0
21 3 3.050960581155978 -0.06226725076526355 3.850333509531712 0 1 0
22 3 3.7197678876953333 3.573912259364466 4.153844994518252 0 0 0
23 3 3.8971845795810593 0.39095013673621865 6.2071393418208665 0 0 0
24 3 2.3761508880045112 2.857641736715317 6.3075848316115835 0 0 0
25 3 1.0061643254630352 2.0001973087708596 3.9934727106734464 0 0 0
26 3 5.42670307299525 1.4554913416595603 4.289256022666624 0 0 0
27 3 7.9595473704553275 0.40581591480732415 1.4669474546010024 0 0 0
28 3 5.350847566779577 6.0929523539075845 7.904952883740196 0 0 0
29 3 6.787817074855842 4.747325655911509 -0.045350214403798585 0 0 0
30 3 8.439480460238775 6.394219013609614 8.379768259243917 0 0 0
31 3 5.54345815302597 1.242360689707606 -0.11028117537075413 0 0 0
32 3 5.872383853684733 -0.16534553038474054 2.4056689769322595 0 0 0
33 3 3.336319181720235 3.1824979552196644 8.519346302542468 0 0 0
34 3 1.1600879445023544 4.163628368105864 7.926722959201331 0 0 0
35 3 3.2617315548849968 5.122959324654931 7.001542006550925 0 0 0
36 3 10.21481167925402 0.24552451022399518 0.7078507979092422 0 0 0
37 3 9.597537981369188 -0.13086455941324043 3.098564046114308 0 1 0
38 3 9.761050395121872 2.1109008109583436 2.2194337533740436 0 0 0
39 3 5.835587949761136 4.065710920005168 3.0615658903571887 0 0 0
40 3 7.962569244573346 3.2640368409288865 5.3211403002810655 0 0 0
41 3 7.687280495244428 5.702387586605032 3.5861083424419027 0 0 0
42 3 7.785939656152527 4.951670888375398 5.368146886847591 0 0 0
43 3 7.308214861526057 2.789074143522311 1.1714546813372473 0 0 0
44 3 9.72037593650665 4.286834537283629 3.255243301437618 0 0 0
45 3 11.728730635335026 3.0364294089590858 1.4640902798160769 0 0 0
46 3 1.1101793796533301 6.068632161158929 0.06203560758810178 0 0 0
47 3 11.428440471124285 3.6800467030606674 8.54593136303204 0 0 0
48 3 1.5405369098502064 2.7756012178506326 0.7547929670846713 0 0 0
49 3 0.967915426753551 3.426596516167063 1.997813912036173 0 0 0
50 3 4.240579572643142 2.6073090718326952 1.9779000444458297 0 0 0
51 3 3.6628266013214743 5.071715365279077 2.2555113101297444 0 0 0
52 3 2.8388953608625314 0.1762366703286859 8.35410598179231 0 0 0
53 3 2.6351332516319164 0.41501560134430027 1.5178602636823717 0 0 0
54 3 7.493988201566548 -0.11974389387121805 4.432772460038593 0 0 0
55 3 13.668611543014416 4.326786207487048 4.297932874475593 -1 0 0
56 3 12.455489566666364 2.7979258962540228 2.7925227126084233 0 0 0
57 3 8.821429506760913 4.542629643777754 6.111101881279904 0 0 0
58 3 10.934245670780209 1.3881152839014905 6.553347190952947 0 0 0
59 3 11.172598315560213 -0.3457783903970635 4.374237343919705 0 1 0
60 3 1.3999207363638644 5.987214336140822 2.814079154499511 0 0 0
61 3 12.76210263342098 -0.3788376249895971 6.312510110344033 0 1 0
62 3 12.928799072754831 0.5783109899024269 1.5588191045629172 0 1 0
63 3 11.673020696252639 1.332660201185705 3.7647464658133747 0 0 0
64 3 12.216425307180591 0.5922045177911295 8.510320813729823 0 0 0
65 3 12.23881809627042 5.522215832438632 0.6518407906925928 0 0 0
66 3 10.820992855575863 6.212167037643426 7.46508021872514 0 -1 0
67 3 7.467680838875726 2.7141565257231655 8.423595374202575 0 0 0
68 3 9.109274449825412 4.1194187198428756 0.33223505327861635 0 0 0

Velocities

1 0 0 0
2 0 0 0
3 0 0 0
4 0 0 0
5 0 0 0
6 0 0 0
7 0 0 0
8 0 0 0
9 0 0 0
10 0 0 0
11 0 0 0
12 0 0 0
13 0 0 0
14 0 0 0
15 0 0 0
16 0 0 0
17 0 0 0
18 0 0 0
19 0 0 0
20 0 0 0
21 0 0 0
22 0 0 0
23 0 0 0
24 0 0 0
25 0 0 0
26 0 0 0
27 0 0 0
28 0 0 0
29 0 0 0
30 0 0 0
31 0 0 0
32 0 0 0
33 0 0 0
34 0 0 0
35 0 0 0
36 0 0 0
37 0 0 0
38 0 0 0
39 0 0 0
40 0 0 0
41 0 0 0
42 0 0 0
43 0 0 0
44 0 0 0
45 0 0 0
46 0 0 0
47 0 0 0
48 0 0 0
49 0 0 0
50 0 0 0
51 0 0 0
52 0 0 0
53 0 0 0
54 0 0 0
55 0 0 0
56 0 0 0
57 0 0 0
58 0 0 0
59 0 0 0
60 0 0 0
61 0 0 0
62 0 0 0
63 0 0 0
64 0 0 0
65 0 0 0
66 0 0 0
67 0 0 0
68 0 0 0
