LAMMPS data file via write_data, version 7 Feb 2024, timestep = 712, units = metal

68 atoms
68 atom types

-0.00039491812736916455 11.210477918127372 xlo xhi
-4.563257534838934e-05 9.708261632575347 ylo yhi
0.0084887397451563 8.74825526025471 zlo zhi
-5.597450329282113 0.009000902798161793 -0.002067293806973306 xy xz yz

Masses

1 1
2 1
3 1
4 1
5 1
6 1
7 1
8 1
9 1
10 1
11 1
12 1
13 1
14 1
15 1
16 1
17 1
18 1
19 1
20 1
21 1
22 1
23 1
24 1
25 1
26 1
27 1
28 1
29 1
30 1
31 1
32 1
33 1
34 1
35 1
36 1
37 1
38 1
39 1
40 1
41 1
42 1
43 1
44 1
45 1
46 1
47 1
48 1
49 1
50 1
51 1
52 1
53 1
54 1
55 1
56 1
57 1
58 1
59 1
60 1
61 1
62 1
63 1
64 1
65 1
66 1
67 1
68 1

Atoms # atomic

1 1 0.03466763387930472 8.495965944083716 0.8929195239841389 0 -1 0
2 2 -2.9550148071110165 6.385329275758755 8.04393494945388 0 0 -1
3 3 3.523220825669497 3.96613584612205 7.7395193812078125 0 0 -1
4 4 -3.0324541186980722 5.728936970025825 5.125401887149392 0 0 0
5 5 -0.10794026680561808 8.648213488130251 3.869499108700189 0 -1 0
6 6 4.14704121468103 2.79220755783555 5.064607992554228 0 0 0
7 7 -3.4131151179462225 9.503759287067021 1.9971550843796047 0 -1 0
8 8 -0.7740944364430434 4.344605600854645 3.7574718711950705 0 0 0
9 9 3.974675204359481 8.934193706985484 1.771548091121532 0 0 0
10 10 8.624262675578642 0.19216954085486865 6.381603566040434 0 0 0
11 11 6.273154590198645 8.56809950320796 6.190064731467809 -1 0 0
12 12 1.2719967780462913 2.2352164026670334 6.880205632053885 0 0 0
13 13 -0.19876462476711812 0.9392082923837781 0.04915342940889167 0 0 0
14 14 -0.1826427172629284 0.926481822337381 4.0357349158799485 0 0 0
15 15 2.3261709631695404 6.605835193155784 2.589999585743782 0 -1 0
16 16 6.280865560088884 6.348192918488103 2.2300419517548495 -1 0 0
17 17 2.184992322937642 3.2752781135788767 2.181793726488788 0 0 0
18 18 -1.8191532405290094 9.478812764463179 6.821617587763691 0 -1 0
19 19 -1.7355053811506334 3.4631084540028936 6.882389924211081 0 0 0
20 20 4.079688421832138 6.664459761640435 5.606557448356251 0 0 0
21 21 2.3709675061333226 1.274334253016055 1.9746616057151736 0 0 0
22 22 -4.166157659075396 9.664854506452166 0.7236337374162055 0 -1 0
23 23 -4.085218587665248 8.17707075803695 2.088526704125529 0 -1 0
24 24 1.4746623544440696 0.059601915244249286 3.277366843719227 0 0 0
25 25 3.2660922691979835 8.466852124802692 6.0413441748980885 0 -1 0
26 26 8.60689247115302 1.680092643347418 6.486774519221858 0 0 0
27 27 9.531840052793351 0.3513623854894249 7.553269184647373 0 0 0
28 28 9.398167950243026 0.4907770538039532 5.146179489857278 0 0 0
29 29 5.064013364270905 7.949830387067809 2.0303784281547506 0 0 0
30 30 3.100173912262319 7.8625740778976585 1.2163629060418357 0 0 0
31 31 4.061848849503923 9.42452698318227 3.1733485570700735 0 0 0
32 32 4.512243304795407 8.872600007089483 0.38586979565787377 0 0 0
33 33 3.0121056594514646 3.713210801536062 0.3832354737312038 0 0 0
34 34 3.6920227900845637 5.254890301241481 7.0055360029684675 0 0 -1
35 35 2.2845858953383136 3.1930086921235916 7.417050031335498 0 0 -1
36 36 3.9378028253246278 3.409952708427392 6.412059244178398 0 0 -1
37 37 3.310697271897484 2.9924176574487196 3.8436648057513376 0 0 0
38 38 0.49820843392778597 3.912293880834056 3.1068558040426684 0 0 0
39 39 0.6690637190170593 2.3390647908668143 1.2229079019624394 0 0 0
40 40 1.3545259205882656 2.186401748011865 3.6654731991076406 0 0 0
41 41 -5.099942506536321 8.868642225429829 4.741716463745432 0 -1 0
42 42 0.7277073485097085 1.938272510526176 5.526815832818455 0 0 0
43 43 -3.516589507287228 8.902998505881776 5.892103418017439 0 0 0
44 44 5.595021034041353 7.362814050181948 6.744459610649899 -1 0 0
45 45 5.908037831534731 9.163821898710959 7.5046604000833375 -1 0 0
46 46 1.104256296236295 7.804498022269711 3.6633775184127466 0 -1 0
47 47 -0.8445880464223957 9.017072904868522 5.1110788769238145 0 -1 0
48 48 -0.10501944629368277 8.62226456362296 2.37522497836167 0 -1 0
49 49 -1.8523743421837604 3.4771695955596393 3.203038696753971 1 0 0
50 50 7.356846308065505 5.98262881172406 3.90517604550074 -1 0 0
51 51 8.090556620985502 4.363641075431757 5.717847983410256 -1 0 0
52 52 -1.912044552160701 5.122113347610543 4.340876701493888 0 0 0
53 53 -3.022780690065984 6.134377975807647 6.567857408204134 0 0 0
54 54 -2.3017669253944093 5.043984422489601 8.009281831787751 0 0 0
55 55 0.28078581898699184 3.347130393292947 6.829763058555339 0 0 0
56 56 9.661365107711976 2.4180078228522164 8.59767218570795 -1 0 0
57 57 -0.7822407462624557 3.756250748856151 5.126009791049747 0 0 0
58 58 -0.7161818571906099 8.89631447607226 8.414579294763149 0 -1 0
59 59 2.3536071371674474 1.2068919693585263 6.933303862893091 0 0 0
60 60 -2.366886966511506 7.686568104068814 7.6001250796656254 0 -1 0
61 61 4.068635589245914 1.4810061373000407 5.775037275406349 0 0 0
62 62 7.417442511404715 6.375456385032822 0.5477533017323631 -1 0 0
63 63 1.106437522867878 7.529026117874741 1.2672085419475785 0 -1 0
64 64 1.5103909211418765 5.986078576479882 4.327305181736946 0 -1 0
65 65 3.4020979292891256 5.64546948658719 4.001928697134903 0 -1 0
66 66 4.271347256971345 6.1082004636190685 2.316489189423896 0 -1 0
67 67 2.306753048690719 6.793623682823171 6.563506587964152 0 0 0
68 68 5.252453226650196 6.54636554412929 3.9612574860886083 0 0 0

Velocities

1 0 0 0
2 0 0 0
3 0 0 0
4 0 0 0
5 0 0 0
6 0 0 0
7 0 0 0
8 0 0 0
9 0 0 0
10 0 0 0
11 0 0 0
12 0 0 0
13 0 0 0
14 0 0 0
15 0 0 0
16 0 0 0
17 0 0 0
18 0 0 0
19 0 0 0
20 0 0 0
21 0 0 0
22 0 0 0
23 0 0 0
24 0 0 0
25 0 0 0
26 0 0 0
27 0 0 0
28 0 0 0
29 0 0 0
30 0 0 0
31 0 0 0
32 0 0 0
33 0 0 0
34 0 0 0
35 0 0 0
36 0 0 0
37 0 0 0
38 0 0 0
39 0 0 0
40 0 0 0
41 0 0 0
42 0 0 0
43 0 0 0
44 0 0 0
45 0 0 0
46 0 0 0
47 0 0 0
48 0 0 0
49 0 0 0
50 0 0 0
51 0 0 0
52 0 0 0
53 0 0 0
54 0 0 0
55 0 0 0
56 0 0 0
57 0 0 0
58 0 0 0
59 0 0 0
60 0 0 0
61 0 0 0
62 0 0 0
63 0 0 0
64 0 0 0
65 0 0 0
66 0 0 0
67 0 0 0
68 0 0 0
