 POSCAR to lmp

68 atoms
3 atom types

0.000000  10.781346 xlo xhi
0.000000  10.774927 ylo yhi
0.000000  10.782513 zlo zhi

 -0.002956   0.020525  -0.002695  xy xz yz

Atoms

 1 1   10.315373   6.415986   6.418932
 2 1   10.319753   3.415854   6.418909
 3 1   10.313502   6.417155   3.418002
 4 1   10.317179   3.416971   3.418083
 5 1    6.423266  10.301315   6.417566
 6 1    6.419373  10.303140   3.416455
 7 1    3.423468  10.303621   6.418389
 8 1    3.419572  10.305390   3.417369
 9 1    6.436735   6.416083  10.306629
 10 1    3.436964   6.417703  10.311811
 11 1    6.436955   3.415597  10.306787
 12 1    3.437191   3.418449  10.311402
 13 2    6.975857   6.963080   6.965295
 14 2    2.882253   2.864753   6.970786
 15 2    2.869066   6.967405   2.870638
 16 2    6.974303   2.870461   2.865757
 17 2    6.969093   6.967979   2.864776
 18 2    2.874401   2.869684   2.870290
 19 2    6.982396   2.865486   6.966081
 20 2    2.875742   6.962107   6.971257
 21 3    0.741284   7.044827   7.051464
 22 3    9.108525   7.049149   7.047334
 23 3   10.315039   4.915710   6.656172
 24 3   10.316261   6.647526   4.918513
 25 3    7.052800   2.790947   0.732136
 26 3    7.049817   0.736334   2.785402
 27 3    9.109178   2.787337   2.787706
 28 3    7.045343   2.802229   4.916174
 29 3    4.923890   2.804479   2.802054
 30 3    7.038047   4.918732   2.799318
 31 3    0.747456   2.786699   7.050819
 32 3    2.807201   2.783677   9.105508
 33 3    2.796883   0.734145   7.053330
 34 3    4.931602   2.801334   7.032920
 35 3    2.810776   2.801247   4.920101
 36 3    2.810764   4.914228   7.039136
 37 3    0.742112   2.785469   2.786878
 38 3   10.315459   4.917194   3.181065
 39 3   10.319625   3.185309   4.918593
 40 3    2.785838   2.793026   0.737249
 41 3    3.200397   4.918251  10.306579
 42 3    4.937300   3.185482  10.313083
 43 3    9.114912   2.781277   7.048646
 44 3    7.054675   9.094129   7.049727
 45 3    7.058493   0.732022   7.047939
 46 3    6.657159  10.301790   4.916719
 47 3    4.923660  10.302596   6.650940
 48 3    7.062392   2.779981   9.099989
 49 3    6.673743   4.915612  10.300757
 50 3    7.053499   7.044642   0.730612
 51 3    7.059815   7.050843   9.098028
 52 3    4.936674   6.648712  10.315682
 53 3    2.807443   7.053218   9.104345
 54 3    2.783418   7.048224   0.736497
 55 3    4.926514   7.026460   7.033233
 56 3    7.038592   7.031281   4.915888
 57 3    7.048367   4.914644   7.033823
 58 3    9.103931   7.047504   2.788293
 59 3    7.052874   9.098765   2.783563
 60 3    4.919199   7.034266   2.800591
 61 3    0.736935   7.049722   2.786469
 62 3    2.784621   9.099994   2.789243
 63 3    2.805918   7.029575   4.920244
 64 3    2.805100   4.918371   2.803965
 65 3    4.919247  10.300414   3.183591
 66 3    2.794039   0.738396   2.783383
 67 3    3.185372  10.308156   4.918027
 68 3    2.793951   9.095599   7.047540
