 POSCAR to lmp

68 atoms
68 atom types

0.000000  11.210083 xlo xhi
0.000000   9.708216 ylo yhi
0.000000   8.756744 zlo zhi

 -5.605041   0.000000   0.000000  xy xz yz

Atoms

 1 1    5.605740   0.006734   0.009939
 2 2   -2.793189   4.861646   0.002565
 3 3    2.808297   4.857481   0.002771
 4 4   -2.801152   4.860006   4.383406
 5 5    5.614288   0.007680   4.386494
 6 6    2.804760   4.858255   4.387850
 7 7    2.185157   0.009176   2.191765
 8 8   -1.086054   1.895335   2.198928
 9 9    4.523858   7.819674   2.197673
 10 10    9.036072   0.004221   6.573612
 11 11   -4.509839   7.828318   6.571343
 12 12    1.091318   1.894297   6.568218
 13 13    0.009560   0.005180   0.009886
 14 14    0.009869   0.003767   4.380357
 15 15    7.696220   0.002453   2.196976
 16 16   -3.839464   6.662185   2.194531
 17 17    1.767666   3.054087   2.191756
 18 18    3.523507   0.005096   6.573443
 19 19   -1.758816   3.055212   6.571488
 20 20    3.849320   6.667640   6.568957
 21 21    1.976411   1.531632   2.191760
 22 22    1.097358   0.007178   1.100826
 23 23    1.975367  -1.518427   2.193148
 24 24    1.097513   0.006472   3.286061
 25 25    9.245217  -1.518178   6.571284
 26 26    9.243669   1.529717   6.572550
 27 27   10.127857   0.004700   7.670121
 28 28   10.128012   0.003994   5.476984
 29 29    5.947238   7.240930   2.196102
 30 30    3.307518   8.765172   2.197325
 31 31    5.069384   8.765829   3.289015
 32 32    5.069229   8.766535   1.103780
 33 33    2.287982   3.955784   1.097264
 34 34    3.328809   5.762561  -1.092508
 35 35    1.949808   3.375889  -1.092877
 36 36    2.806529   4.857868  -2.183062
 37 37    2.286213   3.956171   3.289803
 38 38    0.340806   2.474711   2.195342
 39 39    0.888613   1.529634   1.100821
 40 40    0.888767   1.528927   3.286057
 41 41    0.552536  -0.938066   5.475850
 42 42    0.550593   0.949032   5.474288
 43 43   -3.295687   8.770815   6.572393
 44 44   -5.935301   7.247979   6.570150
 45 45   -5.052660   8.770857   7.668987
 46 46    6.655254   0.005067   3.291735
 47 47    4.568897   0.006388   5.479969
 48 48    5.610014   0.007207   2.198217
 49 49    7.869158   0.951508   3.292711
 50 50   -3.320308   5.761096   3.288969
 51 51   -2.279984   3.957609   5.477447
 52 52   -1.943603   3.377671   3.291167
 53 53   -2.797171   4.860826   6.571358
 54 54   -2.276003   3.958429   7.665398
 55 55   -0.333749   2.474755   6.569853
 56 56   -0.874628   1.530196   7.669059
 57 57   -1.422435   2.475274   4.385208
 58 58    4.564623   0.005915   7.670064
 59 59    2.307412   0.949697   6.570831
 60 60    3.167679  -2.420737   7.666376
 61 61    3.164133   2.431675   5.480647
 62 62   -3.316327   5.761916   1.098548
 63 63    6.650980   0.004594   1.103458
 64 64    8.053010  -2.423754   3.292413
 65 65    8.575290  -1.519062   4.382967
 66 66   10.335940  -1.521789   2.195754
 67 67    1.925010   8.191295   7.667820
 68 68    5.609969   6.664913   4.381744
