LAMMPS data file via write_data, version 7 Feb 2024, timestep = 2929, units = metal

68 atoms
3 atom types

0.3863279057239032 10.395018094276091 xlo xhi
0.26714654850181024 10.507780451498066 ylo yhi
-0.04573698102627542 10.828249981026234 zlo zhi
-1.4805272141796024 0.24413795599340493 -1.0265511958671836 xy xz yz

Masses

1 1
2 1
3 1

Atoms # atomic

1 1 8.838887057904035 5.648373728622573 6.717430381440934 0 0 0
2 1 0.23636177570414582 3.2247673001450963 6.385833217605153 1 0 0
3 1 8.378874523538443 5.8007477316515415 3.4369609423710443 0 0 0
4 1 9.779071306842916 3.3361874699476215 3.0839401573697707 0 0 0
5 1 5.11651219676516 9.598024073501024 7.0838641771980235 0 0 0
6 1 5.2205460276612135 10.09003461044808 3.3570304605489203 0 0 0
7 1 2.2076510957527766 8.934522186168994 6.488709318222087 0 0 0
8 1 2.0045648566121357 9.617672664711407 3.5088580755056897 0 0 0
9 1 6.3270220045707335 5.204336020131549 10.484421175886643 0 0 0
10 1 2.974626688405907 5.272956996905667 10.602100472490399 0 0 0
11 1 6.286099868829371 2.4634719622707246 10.130702268738965 0 0 0
12 1 3.0098816498847047 2.414128399277893 10.517245658629191 0 0 0
13 2 5.877121031063933 6.660869942324666 6.798603988249538 0 0 0
14 2 3.0445885989277888 1.7719374116458568 6.435071778799601 0 0 0
15 2 2.72682001873711 6.387198867601371 3.5275715656294344 0 0 0
16 2 6.531944345355679 2.7659224345078726 2.945064755385784 0 0 0
17 2 5.593520717929975 7.0972447380356645 3.1372090676345494 0 0 0
18 2 2.830566229114175 2.4103980809413605 2.7009433401712344 0 0 0
19 2 6.472438457596186 2.803901089421158 6.639538873983523 0 0 0
20 2 1.9910322405829082 6.272518533153562 6.853868402569617 0 0 0
21 3 0.048628230986342245 6.25075243866577 6.192331178528291 0 0 0
22 3 7.970069748314629 6.740875363553719 7.112558189152533 0 0 0
23 3 9.03792869795162 4.602187918956681 7.654548688069138 0 0 0
24 3 8.032440328809162 5.588753477250574 4.999497498070663 0 0 0
25 3 6.663884387489722 2.430980589130095 0.04543889995907138 0 0 0
26 3 6.853904061516521 0.9151307477893097 2.340673844238597 0 0 0
27 3 8.524399012752742 2.6374325400760266 3.302492502828849 0 0 0
28 3 6.541221880072594 2.19194543401234 4.815189799305416 0 0 0
29 3 4.829946525007157 2.784422946613516 2.0618028489741103 0 0 0
30 3 7.4127442046884875 4.914748958026786 2.680714686072804 0 0 0
31 3 0.980039509606496 1.9394494372669928 6.686623873026134 0 0 0
32 3 2.319035954618391 2.306011136736182 9.271141575288556 0 0 0
33 3 2.790826717166509 -0.08549881867919734 6.6032680277531535 0 0 0
34 3 4.6727368178015345 2.2550619596785517 7.164465438602278 0 0 0
35 3 2.897525918408252 1.7713078488551353 4.552561857159347 0 0 0
36 3 1.3765631329977301 4.1723342778007915 7.007919000989712 0 0 0
37 3 0.7010052403039609 2.2084225567860525 2.714311226953185 0 0 0
38 3 9.795580426718784 4.234275687649161 1.9536105588546406 0 0 0
39 3 0.49660346022195173 3.4472220524453197 4.694224279242036 1 0 0
40 3 2.5686468996908927 2.268698232445943 0.5812591660114774 0 0 0
41 3 2.9529771693074056 4.585485395876616 0.6088280193824213 0 0 1
42 3 4.683992253714652 1.9371497942689824 9.98294596392473 0 0 0
43 3 8.82549978646376 2.710675166204029 6.405856770615054 0 0 0
44 3 6.0800359866922475 8.577838566010382 7.512948630598951 0 0 0
45 3 7.2266352734098005 0.6894426784580969 6.9989710321991465 0 0 0
46 3 6.382404901435626 10.087732705060388 4.348821926850616 0 0 0
47 3 3.7495278027305967 9.548729755934437 7.688825373312096 0 0 0
48 3 6.844509925419698 2.820389998404966 8.813912492964336 0 0 0
49 3 6.215261111508607 4.859541863869919 0.4372488147272431 0 0 1
50 3 6.277245222741713 7.337041102557708 0.4252982496099309 0 0 0
51 3 6.241580968070499 5.3256421121174835 9.067737673504505 0 0 0
52 3 4.228685204275423 6.069022371752037 10.520182298266704 0 0 0
53 3 2.3825014308126224 4.982549960749236 9.28417756735513 0 0 0
54 3 1.797272744170254 6.7903062774021885 0.7623992074619598 0 0 0
55 3 3.9569109691482898 6.514549339741939 7.3759103953128715 0 0 0
56 3 5.735270394784772 7.483862532237575 5.028772222676066 0 0 0
57 3 6.386469023985125 4.679746736051242 6.838514656670453 0 0 0
58 3 7.7230901533115395 7.144079160791174 3.184984973548019 0 0 0
59 3 5.294836512833847 8.850754011040545 2.5698077489042324 0 0 0
60 3 4.143708624061474 6.471673668319744 2.321630543771594 0 0 0
61 3 -0.21541691095655638 6.140710613186577 3.2842916037387373 0 0 0
62 3 2.230463857652621 8.305384523654654 2.8359255344930485 0 0 0
63 3 2.196736344912464 7.089162855101071 5.157947414794296 0 0 0
64 3 2.2352886863888917 4.550786055218618 2.982308199901394 0 0 0
65 3 5.219596362120825 0.0033409836182745913 3.943815990435244 0 1 0
66 3 3.2936480266793233 0.3606017755140842 2.391865320379545 0 0 0
67 3 0.7317692870570758 9.523496178414687 4.228270699160463 0 0 0
68 3 1.6815125256293573 8.046898408163525 7.627594235604417 0 0 0

Velocities

1 0 0 0
2 0 0 0
3 0 0 0
4 0 0 0
5 0 0 0
6 0 0 0
7 0 0 0
8 0 0 0
9 0 0 0
10 0 0 0
11 0 0 0
12 0 0 0
13 0 0 0
14 0 0 0
15 0 0 0
16 0 0 0
17 0 0 0
18 0 0 0
19 0 0 0
20 0 0 0
21 0 0 0
22 0 0 0
23 0 0 0
24 0 0 0
25 0 0 0
26 0 0 0
27 0 0 0
28 0 0 0
29 0 0 0
30 0 0 0
31 0 0 0
32 0 0 0
33 0 0 0
34 0 0 0
35 0 0 0
36 0 0 0
37 0 0 0
38 0 0 0
39 0 0 0
40 0 0 0
41 0 0 0
42 0 0 0
43 0 0 0
44 0 0 0
45 0 0 0
46 0 0 0
47 0 0 0
48 0 0 0
49 0 0 0
50 0 0 0
51 0 0 0
52 0 0 0
53 0 0 0
54 0 0 0
55 0 0 0
56 0 0 0
57 0 0 0
58 0 0 0
59 0 0 0
60 0 0 0
61 0 0 0
62 0 0 0
63 0 0 0
64 0 0 0
65 0 0 0
66 0 0 0
67 0 0 0
68 0 0 0
