 POSCAR to lmp

68 atoms
3 atom types

0.000000  11.210873 xlo xhi
0.000000   9.708307 ylo yhi
0.000000   8.739767 zlo zhi

 -5.597450   0.009001  -0.002067  xy xz yz

Atoms

 1 1    0.034668   8.495966   0.892920
 2 1   -2.955015   6.385329   8.043935
 3 1    3.523221   3.966136   7.739519
 4 1   -3.032454   5.728937   5.125402
 5 1   -0.107940   8.648213   3.869499
 6 1    4.147041   2.792208   5.064608
 7 1   -3.413115   9.503759   1.997155
 8 1   -0.774094   4.344606   3.757472
 9 1    3.974675   8.934194   1.771548
 10 1    8.624263   0.192170   6.381604
 11 1    6.273155   8.568100   6.190065
 12 1    1.271997   2.235216   6.880206
 13 2   -0.198765   0.939208   0.049153
 14 2   -0.182643   0.926482   4.035735
 15 2    2.326171   6.605835   2.590000
 16 2    6.280866   6.348193   2.230042
 17 2    2.184992   3.275278   2.181794
 18 2   -1.819153   9.478813   6.821618
 19 2   -1.735505   3.463108   6.882390
 20 2    4.079688   6.664460   5.606557
 21 3    2.370968   1.274334   1.974662
 22 3   -4.166158   9.664855   0.723634
 23 3   -4.085219   8.177071   2.088527
 24 3    1.474662   0.059602   3.277367
 25 3    3.266092   8.466852   6.041344
 26 3    8.606892   1.680093   6.486775
 27 3    9.531840   0.351362   7.553269
 28 3    9.398168   0.490777   5.146179
 29 3    5.064013   7.949830   2.030378
 30 3    3.100174   7.862574   1.216363
 31 3    4.061849   9.424527   3.173349
 32 3    4.512243   8.872600   0.385870
 33 3    3.012106   3.713211   0.383235
 34 3    3.692023   5.254890   7.005536
 35 3    2.284586   3.193009   7.417050
 36 3    3.937803   3.409953   6.412059
 37 3    3.310697   2.992418   3.843665
 38 3    0.498208   3.912294   3.106856
 39 3    0.669064   2.339065   1.222908
 40 3    1.354526   2.186402   3.665473
 41 3   -5.099943   8.868642   4.741716
 42 3    0.727707   1.938273   5.526816
 43 3   -3.516590   8.902999   5.892103
 44 3    5.595021   7.362814   6.744460
 45 3    5.908038   9.163822   7.504660
 46 3    1.104256   7.804498   3.663378
 47 3   -0.844588   9.017073   5.111079
 48 3   -0.105019   8.622265   2.375225
 49 3   -1.852374   3.477170   3.203039
 50 3    7.356846   5.982629   3.905176
 51 3    8.090557   4.363641   5.717848
 52 3   -1.912045   5.122113   4.340877
 53 3   -3.022781   6.134378   6.567857
 54 3   -2.301767   5.043984   8.009282
 55 3    0.280786   3.347130   6.829763
 56 3    9.661365   2.418008   8.597672
 57 3   -0.782241   3.756251   5.126010
 58 3   -0.716182   8.896314   8.414579
 59 3    2.353607   1.206892   6.933304
 60 3   -2.366887   7.686568   7.600125
 61 3    4.068636   1.481006   5.775037
 62 3    7.417443   6.375456   0.547753
 63 3    1.106438   7.529026   1.267209
 64 3    1.510391   5.986079   4.327305
 65 3    3.402098   5.645469   4.001929
 66 3    4.271347   6.108200   2.316489
 67 3    2.306753   6.793624   6.563507
 68 3    5.252453   6.546366   3.961257
