 POSCAR to lmp

88 atoms
88 atom types

0.000000   9.550334 xlo xhi
0.000000   9.550334 ylo yhi
0.000000  11.650362 zlo zhi

  0.000000   0.000000   0.000000  xy xz yz

Atoms

 1 1    0.002763   4.782272   2.920207
 2 2    4.784817   0.001380   8.744407
 3 3    0.004025   0.006577   5.829203
 4 4    4.775333   4.781366   0.000546
 5 5    0.008520   0.000755  10.021308
 6 6    0.004946   0.002225   1.639015
 7 7    4.775853   4.778561   4.188026
 8 8    4.784030   4.783227   7.464650
 9 9    2.173001   2.169940   0.002535
 10 10    7.388845   7.387068   0.008924
 11 11    2.168746   7.391428   0.002946
 12 12    7.387811   2.167983   0.007169
 13 13    6.942974   6.939759   5.829174
 14 14    2.618475   2.616979   5.826657
 15 15    6.942525   2.614958   5.825820
 16 16    2.615636   6.945507   5.830324
 17 17    2.586349   7.357988   2.920928
 18 18    6.978624   2.195267   2.914973
 19 19    7.360714   6.974180   8.745008
 20 20    2.198594   2.585897   8.737963
 21 21    2.590745   2.196197   2.921041
 22 22    6.973484   7.358796   2.922002
 23 23    7.366313   2.585029   8.744297
 24 24    2.195675   6.973172   8.737847
 25 25    6.072765  -1.287387   8.744708
 26 26    6.075565   1.293205   8.744352
 27 27    3.490246  -1.287891   8.741127
 28 28    3.491705   1.293638   8.741185
 29 29    6.086314   1.084681  10.200969
 30 30    6.086831  -1.080943  10.201847
 31 31    3.474167   3.475653   0.001540
 32 32    3.472040   6.086397   0.001746
 33 33    6.082089   6.084217   0.004735
 34 34    6.081572   3.474675   0.003857
 35 35    4.779682   4.782297  -2.092583
 36 36    4.775593   4.779964   2.094286
 37 37   -1.287043   6.070534   2.921104
 38 38    1.294556   6.070130   2.920567
 39 39   -1.284474   3.488770   2.917590
 40 40    1.296754   3.489235   2.920624
 41 41   -1.302298   5.861015   4.374691
 42 42   -1.079363   6.084670   1.464566
 43 43    2.408534   2.601438   7.282310
 44 44    2.185798   2.377919  10.195430
 45 45    1.103557   1.293326   9.379636
 46 46    2.405656   6.959340   7.284085
 47 47    2.600993   7.151747   4.375626
 48 48    3.699833   5.864367   6.647487
 49 49    3.695745   5.862034   5.009175
 50 50    1.309831   8.251209   5.829763
 51 51    4.779305   6.942633   5.829749
 52 52    7.374780   7.180624  10.202147
 53 53    7.151844   6.956969   7.287091
 54 54    6.072372   5.878704   8.104829
 55 55    6.960574   2.405112   4.370396
 56 56    7.154419   2.599994   7.285058
 57 57    5.863277   3.699092   6.645235
 58 58    5.859189   3.696760   5.006923
 59 59    8.248442   1.310767   5.827511
 60 60    4.780500   2.615969   5.826239
 61 61    0.006733   0.001490  11.655343
 62 62    1.088633  -1.079076  10.837308
 63 63    1.090761   1.085348  10.837103
 64 64   -1.076484  -1.081256  10.840297
 65 65   -1.077002   1.084369  10.839420
 66 66    2.377548   7.374708   1.461937
 67 67    3.681101   6.068275   3.554477
 68 68    1.086846  -1.078340   0.820980
 69 69   -1.078271  -1.080521   0.823970
 70 70   -1.078789   1.085104   0.823092
 71 71    1.088974   1.086083   0.820775
 72 72   -1.283382   1.098746   2.276994
 73 73    2.604610   2.406588   4.373849
 74 74    2.381873   2.183069   1.461788
 75 75    3.683299   3.487379   3.554533
 76 76    2.170874   0.005517   0.002740
 77 77    6.958229   7.149277   4.375588
 78 78    5.874669   6.068679   3.555014
 79 79    6.976054   9.552198   2.918487
 80 80    2.182211   7.182300  -1.454785
 81 81    3.701252   3.700103   6.645654
 82 82    1.311250   1.311778   5.827930
 83 83    2.407075   4.795076   7.282252
 84 84   -1.301667  -1.301999   5.829189
 85 85   -1.089998   1.295803   7.286750
 86 86   -1.079249   1.087280   2.918186
 87 87    7.377062   2.376506  10.200914
 88 88    5.863502   5.861493   6.646912
