pair_coeff 1*16 1*16    harmonic/cut 0.2 3.1
pair_coeff 1*16 17*24   harmonic/cut 0.2 3.37
pair_coeff 17*24 17*24  harmonic/cut 0.2 2.8 
pair_coeff 25*88 25*88  harmonic/cut 0.5 2.5

minimize 0.0 2.0e-1 1000 10000000

fix F1 all box/relax tri 0.0 vmax 0.00001
minimize 0.0 2.0e-3 2000 10000000

unfix F1
fix F2 all box/relax tri 0.0 vmax 0.001
minimize 0.0 2.0e-3 2000 10000000

unfix F2
fix F3 all box/relax tri 0.0 vmax 0.01
minimize 0.0 2.0e-3 2000 10000000

write_data coo_out

