 POSCAR to lmp

68 atoms
68 atom types

0.000000   4.519946 xlo xhi
0.000000  19.692222 ylo yhi
0.000000   9.427497 zlo zhi

  0.000000   0.000000   0.000000  xy xz yz

Atoms

 1 1    0.003079   2.414975   2.363524
 2 2    2.263865   7.439571   7.075331
 3 3    0.000009  17.289586   7.075284
 4 4    2.260258  12.262528   2.362072
 5 5    1.152888  16.099314   3.842006
 6 6    1.126088  13.450294   8.551073
 7 7    3.381445  16.101228   0.883185
 8 8    3.404384  13.445547   5.597413
 9 9    3.381502   3.599454   5.599787
 10 10    3.405565   6.258469   0.885660
 11 11    1.149497   3.606487   8.555811
 12 12    1.125942   6.256779   3.839490
 13 13    0.005325   9.852423   0.003373
 14 14    2.266030   0.007361   4.723488
 15 15    0.008655   9.855247   4.715966
 16 16    2.268173   0.004036   0.001591
 17 17    0.009570  19.071401   2.362424
 18 18    2.269388  10.482452   7.077330
 19 19    0.003370   0.629805   7.073724
 20 20    2.269120   9.223438   2.358999
 21 21    2.266626   8.961011   7.076330
 22 22    3.397330  10.167437   8.254100
 23 23    3.398995  10.168850   5.896648
 24 24    2.836886  11.963999   6.337371
 25 25    1.697738  11.966373   7.814201
 26 26    2.269254   9.852945   9.431912
 27 27    3.395745   0.316920  -1.176091
 28 28    1.138872  -0.308393   1.182008
 29 29    2.824809  -1.793479   0.442388
 30 30    1.708835   1.805261  -0.435047
 31 31    3.394064  -1.199300  -1.175311
 32 32    3.395599   1.209505   1.182558
 33 33    3.955480  17.586315   1.622805
 34 34    3.950700  16.695407  -0.734514
 35 35    2.267167  16.100271   2.362595
 36 36    2.264689  10.742983   2.360535
 37 37    3.397196   9.537930   1.181186
 38 38    3.398861   9.539342   3.537482
 39 39    2.837342   7.740953   1.622329
 40 40    1.697531   7.740108   3.099244
 41 41    1.693173  12.856411  10.170321
 42 42    0.005263  13.447921   7.074243
 43 43    0.565707  11.651358   8.990971
 44 44    2.832321  12.854037   3.979743
 45 45    1.134457  11.058887   3.539019
 46 46    1.694903   6.848175   5.457411
 47 47    2.834715   6.849020   8.694244
 48 48    1.134595   8.645997   8.253100
 49 49   -0.553453  11.650397   5.156690
 50 50    0.567299   8.056013   4.277728
 51 51    0.006990   9.853835   2.359670
 52 52    0.581229  17.585357   3.102215
 53 53    0.576449  16.694450   5.458645
 54 54    1.709459  17.899449   4.282747
 55 55    0.006324  20.589299   2.362974
 56 56    1.137800  19.385492   3.542956
 57 57    0.006470  19.696714   4.718074
 58 58    0.001690  18.805807   7.074504
 59 59   -0.567682   3.007215   3.981655
 60 60    0.576288   3.010731   0.745920
 61 61    3.952409   2.114630   6.336755
 62 62    2.265499   3.602971   7.077799
 63 63    2.823766   1.803408   5.161637
 64 64   -0.554528   8.055446   0.444517
 65 65    3.394673   0.318583   5.898606
 66 66    1.707763   1.806924   6.639650
 67 67    1.695986   3.132070   4.281489
 68 68    3.964441   3.444137  -0.734056
