LAMMPS data file via write_data, version 7 Feb 2024, timestep = 586, units = metal

68 atoms
3 atom types

-0.11958306714348443 8.134334067143508 xlo xhi
-0.30047681679056515 10.50014081679068 ylo yhi
-0.20537795034763565 10.796969950347641 zlo zhi
0.2650474498946538 0.1588329222714005 0.2851343472671342 xy xz yz

Masses

1 1
2 1
3 1

Atoms # atomic

1 1 7.869445047618109 0.42272410686451994 0.2588401776969249 -1 1 1
2 1 4.395841096550515 5.929153248001835 5.329141557691462 0 0 0
3 1 0.3379566217396734 9.617947200689851 5.723375260052922 0 -1 0
4 1 4.563426221213398 3.8700501847643407 10.581641962982612 0 0 0
5 1 8.03641201775635 6.96751044133844 1.9631180849020078 0 0 0
6 1 4.066839556682652 8.487754478020243 8.808285796270438 0 0 0
7 1 7.875303337178902 2.9730877097058825 7.390297827539705 -1 0 0
8 1 3.7575892032917335 1.724596191561383 3.0489797487270627 0 0 0
9 1 0.38740999904842244 3.190734640204099 3.2833603812258696 0 0 0
10 1 4.288805472214249 1.281423788378675 6.96478895599496 0 0 0
11 1 0.37725641675788735 6.771622993312559 9.128715461576347 1 0 0
12 1 4.642770681786362 8.439244621443823 1.8382358130081669 0 0 0
13 2 2.250094877930982 7.177654820427672 6.380447119418157 0 0 0
14 2 1.8276019484106059 8.344606000611853 0.23243269454730228 0 0 1
15 2 5.792331185248549 6.885275905373543 10.6976278676169 0 0 -1
16 2 6.383384726214609 7.9207461992997965 3.863644358231994 0 0 0
17 2 5.768540210550629 2.871648447561541 4.95200428267337 0 0 0
18 2 6.236697362501294 2.1159752943420855 9.314005801825731 0 0 -1
19 2 1.9055773895764812 2.3770348744025074 1.2023896711144206 0 0 1
20 2 1.6989114473212876 1.801165207799888 5.579786030601815 0 0 0
21 3 2.9203080939402324 0.7133143778953618 6.857130950528862 0 0 0
22 3 5.247238722513883 0.5719189590231153 6.082556211335925 0 0 0
23 3 4.260531702178509 2.7032286995082657 6.484243472653391 0 0 0
24 3 4.717852617110943 1.2172420458016588 8.37959054817577 0 0 0
25 3 7.585910790319463 3.6310896629162337 8.708910788870392 0 0 0
26 3 1.067121354172324 3.001413593303179 7.10404423139243 0 0 0
27 3 7.098836084102616 3.618707416371896 6.311742203756913 0 0 0
28 3 7.399119324763081 1.5725102074937 7.568605400310621 -1 0 0
29 3 8.416121319289728 9.578125205696397 7.186383376000652 0 -1 0
30 3 4.795326468574216 4.651284480047552 4.709279087739938 0 0 0
31 3 5.198887171693815 1.6812919153317025 3.349467331535218 0 0 0
32 3 7.208422131854806 3.3931021756211392 3.551434560520568 0 0 0
33 3 5.262431517191719 2.453127088052633 0.09138317956911766 0 0 0
34 3 4.869936890108143 3.9447375150731934 9.126538002923384 0 0 0
35 3 3.1716413066592137 3.454852676197865 10.794874877249663 0 0 -1
36 3 4.7548811794891686 4.8454830346228315 0.2654030605030703 0 0 1
37 3 5.247076677464135 9.431557183102942 2.789913662717815 0 0 0
38 3 5.281479849508502 8.487262753408004 0.5048918929513235 0 0 0
39 3 4.9470746649986825 7.1057887937552024 2.4542549720352933 0 0 0
40 3 3.195898450131245 8.68282281110854 1.708627667354103 0 0 0
41 3 1.1792064846254806 3.52442528263569 4.487030564191977 0 0 0
42 3 3.237750634538883 6.559898739414038 4.61453893746755 0 0 0
43 3 0.4635592026442202 0.1948146494645969 5.303702282610528 0 0 0
44 3 3.021458493367533 1.2085475979809217 4.213231883417365 0 0 0
45 3 7.025268608612077 0.46511304244551677 1.4655387610219783 0 1 0
46 3 5.375068612315554 9.13097143080269 8.569089121220417 0 0 0
47 3 7.217071652012907 6.313208243140381 0.9286207899036847 0 0 0
48 3 0.6894097495178096 8.068056572540597 9.781091842644905 1 0 0
49 3 1.0950467943402735 5.684286589712207 9.825793708697034 0 0 0
50 3 0.849644674445352 10.098546368994118 0.3631555174446447 0 0 0
51 3 1.2017666834281062 6.903136012711218 1.5758650160750427 0 0 0
52 3 3.265472449713052 9.277486292486353 9.779971388683785 0 0 0
53 3 1.3912120789629623 8.647423851898855 5.3240954243799745 0 0 0
54 3 3.873018526616319 5.738537883710842 6.722720621905306 0 0 0
55 3 3.3132684159979116 8.4014609111431 7.529953054998762 0 0 0
56 3 7.622641460173572 8.391063193977295 2.17295277466672 -1 0 0
57 3 0.8135030631597553 6.81065028949519 7.701048968019581 0 0 0
58 3 7.75228633702607 6.335963453314245 3.300180789447046 0 0 0
59 3 7.160921814571931 6.548669817024596 9.189464925285769 0 0 0
60 3 5.549809690023001 6.856282679351261 5.332735609335755 0 0 0
61 3 7.324752050226219 9.236328887847076 5.035117424253653 0 0 0
62 3 4.278992202108412 7.117376443341272 9.350928970312177 0 0 0
63 3 0.38514048116616395 1.6906303216610847 0.08507427510676394 0 0 1
64 3 3.372759260268379 0.9293401702792687 1.830292383089952 0 0 0
65 3 0.6947361107218729 1.782582309820058 2.8830831538880792 0 0 0
66 3 3.3365452999492495 3.1159258196427424 2.7062824274132717 0 0 0
67 3 0.8256288501367754 4.004773671000394 2.096692803835222 1 0 0
68 3 7.150539765749722 0.5170821164806174 10.077966695925294 0 0 0

Velocities

1 0 0 0
2 0 0 0
3 0 0 0
4 0 0 0
5 0 0 0
6 0 0 0
7 0 0 0
8 0 0 0
9 0 0 0
10 0 0 0
11 0 0 0
12 0 0 0
13 0 0 0
14 0 0 0
15 0 0 0
16 0 0 0
17 0 0 0
18 0 0 0
19 0 0 0
20 0 0 0
21 0 0 0
22 0 0 0
23 0 0 0
24 0 0 0
25 0 0 0
26 0 0 0
27 0 0 0
28 0 0 0
29 0 0 0
30 0 0 0
31 0 0 0
32 0 0 0
33 0 0 0
34 0 0 0
35 0 0 0
36 0 0 0
37 0 0 0
38 0 0 0
39 0 0 0
40 0 0 0
41 0 0 0
42 0 0 0
43 0 0 0
44 0 0 0
45 0 0 0
46 0 0 0
47 0 0 0
48 0 0 0
49 0 0 0
50 0 0 0
51 0 0 0
52 0 0 0
53 0 0 0
54 0 0 0
55 0 0 0
56 0 0 0
57 0 0 0
58 0 0 0
59 0 0 0
60 0 0 0
61 0 0 0
62 0 0 0
63 0 0 0
64 0 0 0
65 0 0 0
66 0 0 0
67 0 0 0
68 0 0 0
