 POSCAR to lmp

68 atoms
3 atom types

0.000000   8.014751 xlo xhi
0.000000  10.199664 ylo yhi
0.000000  10.591592 zlo zhi

 -0.003690  -0.004783   0.001658  xy xz yz

Atoms

 1 1    0.023929   9.922141  10.636611
 2 1    3.995079   4.836014   5.337516
 3 1    0.025154  -0.254127   5.331550
 4 1    4.029740   4.832704  10.627525
 5 1    7.972072   6.860444   2.681375
 6 1    3.929294   7.915267   8.029823
 7 1   -0.031294   2.851367   8.016737
 8 1    3.933612   1.718742   2.733301
 9 1   -0.028575   2.801449   2.693179
 10 1    3.953814   1.777230   7.988070
 11 1    7.956813   6.906360   7.995919
 12 1    3.944674   7.866291   2.686449
 13 2    2.117005   7.475231   5.332855
 14 2    1.804726   7.205491  10.631500
 15 2    5.831787   7.535914   0.065079
 16 2    6.084071   7.325482   5.367119
 17 2    5.865870   2.171575   5.362303
 18 2    6.096287   2.317110   0.089480
 19 2    2.133650   2.194909  10.636613
 20 2    1.793001   2.460188   5.350303
 21 3    2.949271   1.340315   8.998068
 22 3    5.004883   1.380279   7.009407
 23 3    2.961202   1.844428   6.878879
 24 3    4.985404   1.834509   9.061680
 25 3    6.915713   3.120857   9.020429
 26 3    1.033451   3.242665   7.050659
 27 3    6.976415   2.822688   6.918947
 28 3    1.011090   2.828013   9.081158
 29 3    6.961618   0.575587   5.938983
 30 3    5.058140   3.937470   4.805894
 31 3    5.044846   1.415766   3.678535
 32 3    6.972233   2.777875   3.784721
 33 3    5.131414   4.010117   0.621603
 34 3    2.882849   5.595801  10.059701
 35 3    2.978296   3.944466   0.600255
 36 3    5.101839   5.731674  10.115122
 37 3    2.946876   8.319336   3.696028
 38 3    4.983390   8.322963   1.720728
 39 3    4.956565   7.864601   3.780147
 40 3    2.938859   7.844381   1.587378
 41 3    0.987316   3.262661   3.680777
 42 3    2.857282   4.070505   4.754834
 43 3    1.087044   0.640770   5.871607
 44 3    2.897849   1.778418   3.802755
 45 3    6.918579   9.140806   0.633952
 46 3    5.043263   8.280399   8.949522
 47 3    6.920823   6.857943   1.625451
 48 3    6.942196   6.927214   9.086891
 49 3    0.984543   6.438718   8.952288
 50 3    1.099511   9.021827   0.560683
 51 3    1.027246   6.434431   1.735927
 52 3    2.870366   7.934226   9.077874
 53 3    1.155910   9.160146   4.769145
 54 3    2.930321   5.714717   5.898123
 55 3    2.879685   8.260884   7.030340
 56 3    0.964745   6.894557   3.778661
 57 3    0.933018   6.953881   6.884232
 58 3    6.910183   6.570363   3.685536
 59 3    6.929962   6.489571   6.999944
 60 3    5.082588   5.664146   5.930491
 61 3    6.949114   9.066019   4.816999
 62 3    4.924821   7.891658   6.921460
 63 3    1.138564   0.533139  10.063259
 64 3    2.889427   1.369250   1.729491
 65 3    0.969933   2.772340   1.587634
 66 3    4.982284   1.747100   1.675196
 67 3    6.975925   3.206427   1.675592
 68 3    6.964296   0.594943  10.091947
