LAMMPS data file via write_data, version 7 Feb 2024, timestep = 1666, units = metal

68 atoms
3 atom types

0.1588648959509603 11.965053104049034 xlo xhi
0.212942336894891 8.724905663105902 ylo yhi
0.14393533252826793 8.653386667471741 zlo zhi
-8.668693770195258e-06 3.7938356671065235e-07 -7.855574496493509e-06 xy xz yz

Masses

1 1
2 1
3 1

Atoms # atomic

1 1 11.368220542044659 7.9476088831177245 2.379902405240518 0 0 0
2 1 5.465018902466589 4.207418026710534 6.736822239805172 0 0 0
3 1 11.368176902701844 8.463423005607249 6.634621430883571 0 -1 0
4 1 5.465038768075124 3.6916374359214283 2.4820735717852345 0 0 0
5 1 1.403239714561358 4.689933890311142 7.790765204613315 0 0 0
6 1 3.623388274956337 7.494967297090646 3.5278882131230707 0 0 0
7 1 9.52648256142545 4.660082547638065 5.588840776743636 0 0 0
8 1 7.306328210188569 7.465112659810906 1.3259761446784784 0 0 0
9 1 9.526501486906259 3.2389810068395826 1.3341090747964555 0 0 0
10 1 7.306350499342977 0.43395073069253554 5.580687792674491 0 0 0
11 1 1.4032501139543216 3.209135491978025 3.53603460863755 0 0 0
12 1 3.623392475439379 0.40408136432757774 7.782601286445 0 0 0
13 2 6.725764027692587 1.8268096426617426 8.380775394048884 0 0 0
14 2 10.108623242733723 1.8220188971295355 4.107749366918089 0 0 0
15 2 4.205508253143527 1.821025592213505 5.008947794767331 0 0 0
16 2 0.8227077142787498 1.816274291225126 0.735953622780423 0 0 0
17 2 4.205473282592924 6.0780216598416645 0.754249655078281 0 0 0
18 2 0.8226991177599918 6.082794550391516 4.990691924804881 0 0 0
19 2 6.725754944591843 6.072229652011657 4.126059634606023 0 0 0
20 2 10.108627603517164 6.077036960913201 8.362501018072122 0 0 0
21 3 9.636675578568662 3.1718562170508227 5.6213375497512175 0 0 0
22 3 9.044645634665038 2.7904387612828776 2.6718301897201733 0 0 0
23 3 11.816087603718431 2.817763007129372 3.736768329912755 -1 0 0
24 3 11.114538778620773 0.6462492891513959 5.366073764685746 0 0 0
25 3 8.153416014136354 1.0769439580561866 4.536770190487932 0 0 0
26 3 10.189443113047208 0.23274960810135792 2.7755166974337255 0 0 0
27 3 7.429678056226355 7.462969819695449 5.485376219299281 0 0 0
28 3 7.778525948802395 0.8323651722546266 6.937058512120157 0 0 0
29 3 5.913007513033023 0.825333275983631 5.379925221506928 0 0 0
30 3 1.5265884596535675 4.692077448587452 3.631368150338718 0 0 0
31 3 1.875448570881134 2.810748810797138 2.1796653317507118 0 0 0
32 3 2.2502899818520303 2.5661248824088636 4.579958386233059 0 0 0
33 3 5.771881716722726 5.211966860652372 5.703780084215551 0 0 0
34 3 5.211301085779479 4.902225155784296 8.005338637455369 0 0 0
35 3 4.286314865807689 3.4102522177697474 6.341104321676816 0 0 0
36 3 6.610457519081842 3.2895764378110264 6.929544319503205 0 0 0
37 3 7.429610896839002 0.43610060645504345 1.2306897497980747 0 0 0
38 3 4.919258107655207 1.0029182660439386 8.085269524721378 0 0 0
39 3 5.77186296582704 2.687168146858164 1.4489519255437453 0 0 0
40 3 8.548562003313137 2.8319011704758195 0.2912246449792293 0 0 1
41 3 5.211430537765005 2.996734617312561 3.7505650286296404 0 0 0
42 3 4.286293749118997 4.488800124067786 2.0864691188153754 0 0 0
43 3 6.6104619184231534 4.6094993237021376 2.674792603296715 0 0 0
44 3 9.636615780575731 4.727212421580294 1.3665975173372562 0 0 0
45 3 10.822372222179728 2.640161617334517 1.0314234090312313 0 0 0
46 3 1.875452646646545 5.088333943080131 6.434402847917665 0 0 0
47 3 10.822310129296033 5.258980843188785 5.286112693989659 0 0 0
48 3 11.675084466872953 6.943124886713121 3.4129947380780186 -1 0 0
49 3 2.645477415163966 7.087879577069199 4.570789752631573 0 0 0
50 3 0.7073827294090688 7.545517961567308 6.441946853520892 0 0 0
51 3 3.733509471213539 0.4712335616752638 3.495405864102306 0 0 0
52 3 3.141509590300345 7.046440061501548 2.190171356916992 0 0 0
53 3 4.919269719807525 6.896152408118378 3.830537801245651 0 0 0
54 3 1.5266427132045324 3.207000151656574 7.886115704740692 0 0 0
55 3 11.675084241006301 0.9560215944362039 7.667636164722939 -1 0 0
56 3 2.6454599487060833 0.8111561985462518 0.3160408441307636 0 0 1
57 3 0.7074207048243311 0.35356654671663307 2.1872237855677383 0 0 0
58 3 9.04463653689224 5.108612908555871 6.926569577652675 0 0 0
59 3 11.816052518192743 5.081250367793122 7.9914457079897145 -1 0 0
60 3 11.114670260007188 7.252721717908713 1.1113846243369492 0 0 0
61 3 8.153434048121632 6.822171875205074 0.2820611417267611 0 0 0
62 3 10.189427341603562 7.666321835482558 7.030342935535042 0 0 0
63 3 3.733518406399125 7.427814211987836 7.750126362473652 0 0 0
64 3 3.1415247911932886 0.8526050884460248 6.444879282434264 0 0 0
65 3 8.548499747980319 5.067092971611872 4.545973223213332 0 0 0
66 3 7.778504071615822 7.066701676908973 2.6823461001219133 0 0 0
67 3 5.913005557042313 7.0736757006878666 1.1251767725579533 0 0 0
68 3 2.250228422419497 5.332998918521785 0.32525346931638927 0 0 1

Velocities

1 0 0 0
2 0 0 0
3 0 0 0
4 0 0 0
5 0 0 0
6 0 0 0
7 0 0 0
8 0 0 0
9 0 0 0
10 0 0 0
11 0 0 0
12 0 0 0
13 0 0 0
14 0 0 0
15 0 0 0
16 0 0 0
17 0 0 0
18 0 0 0
19 0 0 0
20 0 0 0
21 0 0 0
22 0 0 0
23 0 0 0
24 0 0 0
25 0 0 0
26 0 0 0
27 0 0 0
28 0 0 0
29 0 0 0
30 0 0 0
31 0 0 0
32 0 0 0
33 0 0 0
34 0 0 0
35 0 0 0
36 0 0 0
37 0 0 0
38 0 0 0
39 0 0 0
40 0 0 0
41 0 0 0
42 0 0 0
43 0 0 0
44 0 0 0
45 0 0 0
46 0 0 0
47 0 0 0
48 0 0 0
49 0 0 0
50 0 0 0
51 0 0 0
52 0 0 0
53 0 0 0
54 0 0 0
55 0 0 0
56 0 0 0
57 0 0 0
58 0 0 0
59 0 0 0
60 0 0 0
61 0 0 0
62 0 0 0
63 0 0 0
64 0 0 0
65 0 0 0
66 0 0 0
67 0 0 0
68 0 0 0
