LAMMPS data file via write_data, version 7 Feb 2024, timestep = 2371, units = metal

68 atoms
68 atom types

0.11056030371327619 5.8304376962864914 xlo xhi
0.09520179450664588 16.429777205493107 ylo yhi
0.020275676465869977 9.585872323534117 zlo zhi
0.0013646338742221331 -0.10868970248034257 -0.1368794728173552 xy xz yz

Masses

1 1
2 1
3 1
4 1
5 1
6 1
7 1
8 1
9 1
10 1
11 1
12 1
13 1
14 1
15 1
16 1
17 1
18 1
19 1
20 1
21 1
22 1
23 1
24 1
25 1
26 1
27 1
28 1
29 1
30 1
31 1
32 1
33 1
34 1
35 1
36 1
37 1
38 1
39 1
40 1
41 1
42 1
43 1
44 1
45 1
46 1
47 1
48 1
49 1
50 1
51 1
52 1
53 1
54 1
55 1
56 1
57 1
58 1
59 1
60 1
61 1
62 1
63 1
64 1
65 1
66 1
67 1
68 1

Atoms # atomic

1 1 0.6265994949155826 8.36832831812635 8.777144364553694 0 0 -1
2 2 2.931746801074175 1.1239586028934299 5.278525751889087 0 0 0
3 3 5.387301049050184 7.966434449456682 4.5416308670024685 -1 0 0
4 4 2.721389911247219 15.275465607666073 0.30900538333044836 0 -1 0
5 5 3.7190341440894 5.58233935530446 4.008077507596888 0 0 0
6 6 5.824473344999486 3.8944279561908757 0.47379366028947006 0 0 1
7 7 2.3694792842172436 5.626544308853366 1.3504962268350889 0 0 0
8 8 0.5413063568900562 2.132083827461274 6.717071030587954 0 0 0
9 9 1.5919353376015946 11.22162656734596 5.119470890132796 0 0 0
10 10 0.4264102327461328 13.384206482074235 0.23645684970182448 0 0 0
11 11 3.9793045491395667 11.6195295613521 8.366323932608472 0 0 0
12 12 4.994541377668421 12.891376057377851 4.263958375740403 0 0 0
13 13 5.8213572704303385 0.4538983018261348 0.11173168906287542 -1 0 0
14 14 2.343962361497888 8.062111148139351 5.876388566694698 0 0 0
15 15 0.26400195385533887 16.254874340816396 4.0883881980825265 0 -1 0
16 16 3.6260001808167894 8.253583658631154 9.24192908140311 0 0 -1
17 17 0.18681978343681513 10.423417707482614 2.083200270030077 0 0 0
18 18 2.6539678156941444 14.196612843588811 6.509660709493213 0 0 0
19 19 5.366864402273847 5.517634457070949 7.0264047753119225 -1 0 0
20 20 3.3872638967181072 1.9363429139649861 1.9202796919499714 0 0 0
21 21 1.7969088963086424 8.236627216321098 0.21943498833256855 0 0 0
22 22 2.9937985798577835 6.783887605607391 0.6514686651956051 0 0 0
23 23 3.8594138795610062 10.230386932586589 8.898336736278598 0 0 -1
24 24 4.289828417035721 9.579152350286249 1.2146253141779244 0 0 0
25 25 4.077911703059908 6.644426324143559 8.102843949297142 0 0 -1
26 26 3.772767091593899 8.474801455679257 7.24197411518106 0 0 -1
27 27 3.9338194180284174 15.717392887895196 9.502845670830949 0 -1 -1
28 28 2.6417053660559113 14.878397023961472 8.408390856640484 0 -1 -1
29 29 2.77811791836356 0.17451470257889612 1.1435069611868764 0 0 0
30 30 1.6740298357939836 14.207760013575932 0.27926981242556664 0 -1 0
31 31 0.17511110742597458 3.573538000361387 6.826242342964583 0 0 0
32 32 5.552733896056355 4.488408612690445 8.752117071888375 -1 0 0
33 33 0.35381575302146256 7.047942810154655 8.139654267309295 0 0 0
34 34 5.438231212198647 7.076541751183386 5.739332086531562 -1 0 0
35 35 4.293914420167713 5.2457610703373785 5.339724478828693 -1 0 0
36 36 0.4660970482349032 12.179742456210024 1.1155141368746024 0 0 0
37 37 5.614987997386063 14.775104925333842 0.14468140011307987 -1 0 0
38 38 5.000091149949448 12.458123737536209 9.070039606200051 -1 0 -1
39 39 5.050700575667251 11.921585208400634 3.1343486261495874 0 0 0
40 40 5.406086060376051 14.322806446836282 4.208994175692101 0 0 0
41 41 0.4509598734156297 12.125550962041173 4.776946849614252 1 0 0
42 42 4.078013463243934 13.3900704814054 5.326512164921758 0 0 0
43 43 4.206264981213511 0.46128154109821723 4.884602248564666 0 0 0
44 44 2.7588809937102807 16.123366914019872 5.919300684297911 0 -1 0
45 45 2.9203596347030922 1.4640269357471827 3.8273048476244815 0 0 0
46 46 1.8368044321405224 1.732249241682784 6.091308990304183 0 0 0
47 47 5.556626171929807 9.027296569220658 3.5065021432563497 -1 0 0
48 48 0.48213349925294907 9.454088827278905 0.33479450895174334 0 0 0
49 49 1.2936469383097409 10.713042559939007 3.750041715717902 0 0 0
50 50 0.33707818094684344 2.463878412680871 0.12141800904503677 1 0 1
51 51 1.2378893975077436 4.748236923802889 0.9352259855629178 1 0 1
52 52 4.627215877019741 3.345309127931028 1.171477085149927 0 0 1
53 53 3.563429605674546 12.928849627983185 7.789447006896066 0 0 0
54 54 2.2024621568422247 12.32315832510743 5.912783382856355 0 0 0
55 55 1.2272257727752685 14.975316661972492 5.315512056192823 0 0 0
56 56 5.375901100895631 1.6525097190307896 1.674334702038994 -1 0 0
57 57 0.21308795322414398 16.264090564303878 2.0655335133735875 0 -1 0
58 58 0.3076482884036781 1.3465201165110252 7.963659433014829 0 0 -1
59 59 0.08579098216025731 1.2057057873624843 5.640579905928459 0 0 0
60 60 4.781209820347915 1.2947024859778982 3.231571507221552 -1 0 0
61 61 3.138130172384703 11.1317376833228 7.233443401087774 0 0 0
62 62 4.236966750140675 8.499753752104395 5.323290047854009 0 0 0
63 63 2.7638255538938807 6.396245008106521 4.812818823594612 0 0 0
64 64 2.465645759460278 8.393757036738078 3.887892129045812 0 0 0
65 65 1.189525192674044 8.64720051595581 7.426061049622892 0 0 0
66 66 2.082356040766362 3.0493482638151264 2.9841123046025078 0 0 0
67 67 3.0399489675982534 5.63566655023172 2.681761945225982 0 0 0
68 68 4.545674266904679 6.826221693805038 4.067961706606529 0 0 0

Velocities

1 0 0 0
2 0 0 0
3 0 0 0
4 0 0 0
5 0 0 0
6 0 0 0
7 0 0 0
8 0 0 0
9 0 0 0
10 0 0 0
11 0 0 0
12 0 0 0
13 0 0 0
14 0 0 0
15 0 0 0
16 0 0 0
17 0 0 0
18 0 0 0
19 0 0 0
20 0 0 0
21 0 0 0
22 0 0 0
23 0 0 0
24 0 0 0
25 0 0 0
26 0 0 0
27 0 0 0
28 0 0 0
29 0 0 0
30 0 0 0
31 0 0 0
32 0 0 0
33 0 0 0
34 0 0 0
35 0 0 0
36 0 0 0
37 0 0 0
38 0 0 0
39 0 0 0
40 0 0 0
41 0 0 0
42 0 0 0
43 0 0 0
44 0 0 0
45 0 0 0
46 0 0 0
47 0 0 0
48 0 0 0
49 0 0 0
50 0 0 0
51 0 0 0
52 0 0 0
53 0 0 0
54 0 0 0
55 0 0 0
56 0 0 0
57 0 0 0
58 0 0 0
59 0 0 0
60 0 0 0
61 0 0 0
62 0 0 0
63 0 0 0
64 0 0 0
65 0 0 0
66 0 0 0
67 0 0 0
68 0 0 0
