 POSCAR to lmp

68 atoms
3 atom types

0.000000  12.123918 xlo xhi
0.000000   8.937848 ylo yhi
0.000000   8.797322 zlo zhi

  0.003353  -0.008046   0.000738  xy xz yz

Atoms

 1 1   11.515689   8.111938   2.372923
 2 1    5.456296   4.206450   6.755431
 3 1   11.511836  -0.264122   6.771924
 4 1    5.457480   3.640985   2.356422
 5 1    1.190550   4.765541   7.976957
 6 1    3.635171   7.530890   3.533965
 7 1    9.695738   4.786706   5.589626
 8 1    7.258974   7.551323   1.151432
 9 1    9.698312   3.061678   1.192172
 10 1    7.254636   0.294653   5.552123
 11 1    1.194064   3.083983   3.578927
 12 1    3.630319   0.316359   7.933527
 13 2    6.861761   1.727193   8.507447
 14 2   10.077218   1.719514   4.163606
 15 2    4.015709   1.662963   4.961573
 16 2    0.807884   1.649731   0.621459
 17 2    4.019340   6.186342   0.562412
 18 2    0.805469   6.196792   5.019578
 19 2    6.866099   6.119966   4.108590
 20 2   10.073953   6.132579   8.561791
 21 3    9.878258   3.317428   5.489553
 22 3    9.202059   2.727285   2.551809
 23 3   -0.197419   2.616002   3.791494
 24 3   10.920838   0.508692   5.651132
 25 3    8.166690   1.009168   4.622803
 26 3   10.480202   0.063820   2.961117
 27 3    7.335904   7.773693   5.293773
 28 3    7.659444   0.576341   6.952322
 29 3    5.862994   0.761044   5.336589
 30 3    1.269032   4.544501   3.830330
 31 3    1.604180   2.796899   2.181432
 32 3    2.103573   2.375726   4.515217
 33 3    5.956364   5.139882   5.715970
 34 3    4.860188   4.980399   7.873049
 35 3    4.425943   3.316741   6.164534
 36 3    6.582507   3.386877   7.269707
 37 3    7.332361   0.073657   0.900913
 38 3    4.928350   0.996690   8.168406
 39 3    5.959004   2.709882   1.315206
 40 3    8.705098   2.612211   8.974337
 41 3    4.859299   2.865703   3.471389
 42 3    4.427354   4.532103   1.766463
 43 3    6.584115   4.457823   2.873964
 44 3    9.880808   4.530362   1.085158
 45 3   10.995126   2.377462   0.961471
 46 3    1.600865   5.044174   6.577611
 47 3   10.992189   5.470728   5.355490
 48 3   -0.107384   7.180744   3.414639
 49 3    2.650134   7.081674   4.549977
 50 3    0.516622   7.849187   6.263013
 51 3    3.807339   0.062875   3.637894
 52 3    3.141400   7.188645   2.175565
 53 3    4.934436   6.852496   3.767143
 54 3    1.266625   3.307202   8.238150
 55 3   -0.111307   0.670597   7.810170
 56 3    2.644726   0.762615   8.950386
 57 3    0.515623  -0.007078   1.859768
 58 3    9.200075   5.126433   6.948048
 59 3   -0.200825   5.234990   8.187249
 60 3   10.921667   7.336879   1.255570
 61 3    8.169467   6.842199   0.216519
 62 3   10.481816   7.787518   7.362462
 63 3    3.811850   7.784197   8.032264
 64 3    3.135643   0.659724   6.575873
 65 3    8.710047   5.231319   4.572547
 66 3    7.666312   7.262917   2.549405
 67 3    5.867209   7.085046   0.936260
 68 3    2.100803   5.481077   8.907160
