pair_coeff 1*12 1*12      harmonic/cut 0.2 4.00
pair_coeff 1*12 13*20     harmonic/cut 0.2 3.24
pair_coeff 13*20 13*20    harmonic/cut 0.2 3.60
pair_coeff 21*68 21*68  harmonic/cut 0.5 2.0

minimize 0.0 2.0e-1 1000 10000000

fix F1 all box/relax tri 0.0 vmax 0.00001
minimize 0.0 2.0e-3 2000 10000000

unfix F1
fix F2 all box/relax tri 0.0 vmax 0.001
minimize 0.0 2.0e-3 2000 10000000

unfix F2
fix F3 all box/relax tri 0.0 vmax 0.01
minimize 0.0 2.0e-3 2000 10000000

write_data coo_out

